#     DFTpy    
  CRYSTAL 
    
  PRIMVEC    
  27.22    0.0    0.0    
  0.0    27.22    0.0    
  0.0    0.0    27.22    
  PRIMCOORD    
  19    1    
  Cu    11.805    11.805    13.61    
  Cu    11.805    13.61    11.805    
  Cu    10.0    13.61    13.61    
  Cu    11.805    13.61    15.415    
  Cu    11.805    15.415    13.61    
  Cu    13.61    11.805    11.805    
  Cu    13.61    10.0    13.61    
  Cu    13.61    11.805    15.415    
  Cu    15.415    11.805    13.61    
  Cu    13.61    13.61    10.0    
  Cu    13.61    15.415    11.805    
  Cu    15.415    13.61    11.805    
  Cu    13.61    13.61    13.61    
  Cu    13.61    15.415    15.415    
  Cu    15.415    13.61    15.415    
  Cu    15.415    15.415    13.61    
  Cu    13.61    13.61    17.22    
  Cu    13.61    17.22    13.61    
  Cu    17.22    13.61    13.61    
  BEGIN_BLOCK_DATAGRID_3D    
  3d_datagrid_density    
  BEGIN_DATAGRID_3D#0    
  37    37    33    
  0.0    0.0    0.0    
  20.2080089581052    0.0    0.0    
  0.0    20.8591327648086    0.0    
  0.0    0.0    18.9388328781969    
  7.650561122155318e-13    8.078024115496884e-13    1.0284654451658537e-12    1.4312116774467173e-12    2.20829139705035e-12    
  3.4084896089505606e-12    5.127637367918797e-12    7.964125114877548e-12    1.1942490689566756e-11    1.737474169374967e-11    
  2.4596176309560218e-11    3.3564294387080514e-11    4.438480777131968e-11    5.659162375706862e-11    6.862035737527168e-11    
  7.941336781843302e-11    8.919486531817222e-11    9.51689458520661e-11    9.71740651663402e-11    9.443595342648517e-11    
  8.951335135584602e-11    7.977029543861237e-11    6.976119644279934e-11    5.574619120430613e-11    4.396813477307339e-11    
  3.375119682932104e-11    2.4653123355218093e-11    1.7429957416433474e-11    1.1937185444990266e-11    7.936113369620114e-12    
  5.1729195320773875e-12    3.3956549188839978e-12    2.1608704324265314e-12    1.4244181292212223e-12    1.0530953066173956e-12    
  8.445848564189084e-13    7.650561122155318e-13    8.382188604616348e-13    8.960623429294048e-13    1.1364842144664519e-12    
  1.595705154886636e-12    2.481053765996439e-12    3.8022504127500805e-12    5.825313550426094e-12    9.085930614842615e-12    
  1.3693023256336687e-11    2.0040473049053702e-11    2.8564844167834637e-11    3.895652257045111e-11    5.149326914080559e-11    
  6.547728750569981e-11    7.871523894435031e-11    9.129175903577768e-11    1.0347651189642042e-10    1.1059463015793478e-10    
  1.1184693954488323e-10    1.109833080941127e-10    1.0371154739341601e-10    9.211854248155293e-11    7.881942028782523e-11    
  6.485610111810512e-11    5.142736168140083e-11    3.9146847571969846e-11    2.86364373601104e-11    2.0030419962550207e-11    
  1.3678265689153034e-11    9.0576240001762e-12    5.885747894907345e-12    3.8046668290605755e-12    2.428840517168292e-12    
  1.5839734412030613e-12    1.1623952158158426e-12    9.28696022796282e-13    8.382188604616348e-13    1.0932513843024261e-12    
  1.1777393627373082e-12    1.5004815795721956e-12    2.1482091512807463e-12    3.3492719725619375e-12    5.275177696660131e-12    
  8.18940480774506e-12    1.3004739217220087e-11    1.9788229176090182e-11    2.933282654707879e-11    4.2104046897304214e-11    
  5.8110940287426167e-11    7.748133804302364e-11    9.958047306348403e-11    1.2140605733450842e-10    1.4139211978406946e-10    
  1.594198764801586e-10    1.689919011305555e-10    1.76264964908385e-10    1.706332244050918e-10    1.5786208570845137e-10    
  1.4195753996917353e-10    1.2169502424543666e-10    9.898771928980268e-11    7.717478156879041e-11    5.8103857019443884e-11    
  4.222310994275154e-11    2.940842851403923e-11    1.9789911335236764e-11    1.2971626928564828e-11    8.251610132063682e-12    
  5.287815631480306e-12    3.3015152143530133e-12    2.1387637230893846e-12    1.5350666454672016e-12    1.204056707075696e-12    
  1.0932513843024261e-12    1.6067084283962402e-12    1.7375172787176775e-12    2.253635515710352e-12    3.2813402656416097e-12    
  5.217581439301109e-12    8.351831076531688e-12    1.3381712152096709e-11    2.1481876367197917e-11    3.3231447550493725e-11    
  4.985702183877892e-11    7.24969044149089e-11    1.0094451804526464e-10    1.3559334980453422e-10    1.747747040130787e-10    
  2.13190450527955e-10    2.5160152926999634e-10    2.8616955608957527e-10    3.056003239051478e-10    3.101131201378125e-10    
  3.038212614193638e-10    2.8366876298222457e-10    2.528794690424363e-10    2.146675683991105e-10    1.7362464973969358e-10    
  1.3583637072074465e-10    1.0105498015371708e-10    7.254899766885953e-11    4.978869612937139e-11    3.3237331977689566e-11    
  2.142360948951284e-11    1.3457437844158495e-11    8.38241875277315e-12    5.1675553918893e-12    3.2652280229431814e-12    
  2.295468609109845e-12    1.7569608107009859e-12    1.6067084283962402e-12    2.494889079459467e-12    2.7683001436992408e-12    
  3.6110894383365763e-12    5.403883587452279e-12    8.708999897268882e-12    1.432369838504401e-11    2.332709953448637e-11    
  3.810427446146428e-11    5.963198513985146e-11    9.093459718472513e-11    1.334360915304154e-10    1.8810586662860395e-10    
  2.549139415720002e-10    3.3201485937352697e-10    4.1194084465771e-10    4.85550249900699e-10    5.472045360008281e-10    
  5.920689305896839e-10    6.088611710240234e-10    5.919193093159263e-10    5.458619978991544e-10    4.879645460786457e-10    
  4.132959853831561e-10    3.303551392894429e-10    2.5549000338733233e-10    1.8865845024385558e-10    1.3358016253303438e-10    
  9.076915546110759e-11    5.969848168585666e-11    3.801044386859869e-11    2.343446807107645e-11    1.4378182864975857e-11    
  8.65304561639573e-12    5.367386135561966e-12    3.654611890932429e-12    2.7836812901013987e-12    2.494889079459467e-12    
  4.041507595337948e-12    4.47178943678738e-12    5.989313570150211e-12    9.102823099853763e-12    1.4989181185109654e-11    
  2.5001925024873716e-11    4.169694382455204e-11    6.868007245677108e-11    1.0936445629150682e-10    1.6860012343554315e-10    
  2.507662853495495e-10    3.5641024573749616e-10    4.889249045567534e-10    6.371124003029893e-10    7.92075609208437e-10    
  9.427000395883546e-10    1.0731260460286353e-09    1.1520805277310414e-09    1.1796894461986178e-09    1.1521606472489663e-09    
  1.072955175783598e-09    9.417609402653607e-10    7.932112680242832e-10    6.366778169389298e-10    4.874849897209632e-10    
  3.5680393899421995e-10    2.506463047491153e-10    1.683438395277392e-10    1.0949373016536595e-10    6.863872653278765e-11    
  4.185481939301378e-11    2.5098546578966542e-11    1.493967171682745e-11    9.04707980450012e-12    6.040801749297281e-12    
  4.474340560407785e-12    4.041507595337948e-12    6.496540755558046e-12    7.29224153933132e-12    9.876005605216448e-12    
  1.5373004023230463e-11    2.5579076446618355e-11    4.3617598914042425e-11    7.365246196288298e-11    1.2311522398337545e-10    
  1.985238241840234e-10    3.0986479734261283e-10    4.6502447948821665e-10    6.683215343719284e-10    9.213967696530831e-10    
  1.2132043405944716e-09    1.5253093543458843e-09    1.8212246192305683e-09    2.0669237283324845e-09    2.2336286244543522e-09    
  2.29832487907086e-09    2.2346732398575534e-09    2.0653445652030218e-09    1.8212053127456506e-09    1.5274394301139627e-09    
  1.2140913592428402e-09    9.214898702165909e-10    6.6913857513306e-10    4.6532451826363837e-10    3.0973141714550527e-10    
  1.9878151102242263e-10    1.2304599781056875e-10    7.38826000822479e-11    4.373652611204055e-11    2.5543950244553475e-11    
  1.5303670041259404e-11    9.92671002978623e-12    7.277188917750096e-12    6.496540755558046e-12    1.0349610147150325e-11    
  1.1669051704476104e-11    1.6103005896335074e-11    2.5346959543801793e-11    4.294240379869958e-11    7.41821047217704e-11    
  1.2742276628762403e-10    2.1545385324550476e-10    3.5130972008333627e-10    5.543522947342006e-10    8.398690065209925e-10    
  1.2182840853571726e-09    1.690808631173075e-09    2.2395317015123605e-09    2.8193211458936675e-09    3.38408842064268e-09    
  3.867522218365585e-09    4.181838228898338e-09    4.290221847774722e-09    4.185451538884267e-09    3.866007508607644e-09    
  3.3869367390354225e-09    2.8231589038533424e-09    2.237655862514666e-09    1.6924138144128553e-09    1.2190829027328153e-09    
  8.403177256278142e-10    5.539606634796714e-10    3.519398626422914e-10    2.1530974954717233e-10    1.2770624007884548e-10    
  7.437162502501937e-11    4.293876483859423e-11    2.5253927922158265e-11    1.6154305272691192e-11    1.163772985922414e-11    
  1.0349610147150325e-11    1.610085957490387e-11    1.826260018958036e-11    2.5438456422671837e-11    4.072832157224456e-11    
  6.989798567194088e-11    1.225157297068441e-10    2.1327652644026733e-10    3.6456875061358746e-10    6.015735253760153e-10    
  9.581278066324464e-10    1.4648161963113946e-09    2.1420324193271117e-09    2.996639678021741e-09    3.996843268351244e-09    
  5.077082875849699e-09    6.113173271745861e-09    6.9883602935753595e-09    7.588205951864295e-09    7.803877815670329e-09    
  7.585381881385603e-09    6.990424007155456e-09    6.114027121667214e-09    5.081615915718838e-09    3.995495901104336e-09    
  2.996162589822086e-09    2.141836865707743e-09    1.4642168015614436e-09    9.57391832317433e-10    6.02012485173186e-10    
  3.6444538107722807e-10    2.1361237413927613e-10    1.2278394546700522e-10    6.992355378004053e-11    4.0585595627222975e-11    
  2.5486590376578746e-11    1.8211537664732912e-11    1.610085957490387e-11    2.4274474826814784e-11    2.762911933368381e-11    
  3.8917043463715996e-11    6.317947039110265e-11    1.099114303989256e-10    1.950593994868626e-10    3.4358875798219945e-10    
  5.936732645094682e-10    9.894951942238731e-10    1.5907797126276158e-09    2.4519899220020447e-09    3.6161667602928914e-09    
  5.090941605929411e-09    6.82998994103385e-09    8.696724979801212e-09    1.053052844500274e-08    1.2112621591109967e-08    
  1.3143927908509386e-08    1.3496883764407119e-08    1.31367702747267e-08    1.210723321691552e-08    1.0532176717146838e-08    
  8.69544230233587e-09    6.825370615783275e-09    5.092673218814492e-09    3.6163410496780574e-09    2.4523487614364293e-09    
  1.5895584841615305e-09    9.901971929726241e-10    5.933404836139544e-10    3.441025756064156e-10    1.9532292078858546e-10    
  1.0983296569498682e-10    6.296253206658583e-11    3.8974141551625245e-11    2.7533732178735872e-11    2.4274474826814784e-11    
  3.53173043712388e-11    4.031078203839865e-11    5.733828412933752e-11    9.4281142007551e-11    1.6602758775210984e-10    
  2.9805157956546323e-10    5.309954390525031e-10    9.258012562939734e-10    1.5582319497780996e-09    2.5258846634429235e-09    
  3.927256571696157e-09    5.835333863070001e-09    8.273029316398538e-09    1.1176156758851438e-08    1.4351829219085682e-08    
  1.7440707398437406e-08    2.006285306828564e-08    2.18806114935635e-08    2.255378096479141e-08    2.1881262691586182e-08    
  2.0063848493158852e-08    1.7450885836831823e-08    1.4356142800053369e-08    1.1176708933797195e-08    8.276245331834709e-09    
  5.835724883067329e-09    3.926024090666236e-09    2.52439272608662e-09    1.55896046854673e-09    9.255509897237179e-10    
  5.316904099779536e-10    2.984932080445354e-10    1.6589324876134647e-10    9.403358645278649e-11    5.7384515174604e-11    
  4.0188176708769933e-11    3.53173043712388e-11    4.945540913192458e-11    5.662526685048243e-11    8.123534034220536e-11    
  1.348761232506195e-10    2.4029031945213515e-10    4.361848502784429e-10    7.843943397669737e-10    1.3797099643298622e-09    
  2.341508099821672e-09    3.828075092952304e-09    5.994065954284404e-09    8.972853558625577e-09    1.2813567528428233e-08    
  1.7402357874086012e-08    2.2403075525810717e-08    2.737160470485613e-08    3.169137675194057e-08    3.4569483937906574e-08    
  3.554783244639044e-08    3.456571643494554e-08    3.168507769118116e-08    2.737097445257981e-08    2.240307918436369e-08    
  1.7399473739295168e-08    1.2818078202557465e-08    8.974891872996202e-09    5.993661805916562e-09    3.8263461263273376e-09    
  2.3426996312909684e-09    1.3793706346860928e-09    7.853708827557459e-10    4.367046154473325e-10    2.40311873113e-10    
  1.345575771557583e-10    8.125769867199004e-11    5.642969025134461e-11    4.945540913192458e-11    6.644328185626933e-11    
  7.632617081917082e-11    1.102311757121247e-10    1.8477583182783609e-10    3.325226397181222e-10    6.092410368070162e-10    
  1.1054909773488676e-09    1.9589086593465427e-09    3.3511802823883384e-09    5.519356076246576e-09    8.706108177520125e-09    
  1.3126709237191927e-08    1.8863486855906806e-08    2.578999708395931e-08    3.351129219954262e-08    4.107778844773037e-08    
  4.774420731925495e-08    5.367705606914006e-08    5.6750581263251334e-08    5.368843408365852e-08    4.7733983380117735e-08    
  4.109859700965471e-08    3.3518141184467614e-08    2.580627908314393e-08    1.8872625879744707e-08    1.3130162803729734e-08    
  8.70743699228813e-09    5.516291943338902e-09    3.3527666328978063e-09    1.9586752241775825e-09    1.106589608754147e-09    
  6.098062466505816e-10    3.325977680957295e-10    1.843597430428179e-10    1.1024631315141044e-10    7.610855747967363e-11    
  6.644328185626933e-11    8.585679740231368e-11    9.807445923817404e-11    1.4342375553740284e-10    2.4147037914940576e-10    
  4.3955038079253657e-10    8.102151592364245e-10    1.4835448023283326e-09    2.643677599753388e-09    4.559831222007653e-09    
  7.551354242493449e-09    1.2001825715957362e-08    1.819436125561548e-08    2.6336801683380245e-08    3.6143758732669747e-08    
  4.706087696653106e-08    5.7880330057645144e-08    6.941282604356243e-08    8.103592176490219e-08    8.139406682016802e-08    
  8.104008051868436e-08    6.943048294644826e-08    5.7877060137793773e-08    4.7063077799273515e-08    3.612273619124736e-08    
  2.6349028491521313e-08    1.8195438589379308e-08    1.2005564428666164e-08    7.549250917773452e-09    4.561151836705209e-09    
  2.6427183011834986e-09    1.4853308241216228e-09    8.106151442434262e-10    4.3952670947502725e-10    2.409977560857348e-10    
  1.4350863083227328e-10    9.795992791844395e-11    8.585679740231368e-11    1.0589370646231984e-10    1.2077645588469887e-10    
  1.7803400839004217e-10    3.0140816192617543e-10    5.531277772067151e-10    1.0253692491848312e-09    1.8912268469090578e-09    
  3.3860012731298994e-09    5.88234540805163e-09    9.790694520791435e-09    1.566165217238424e-08    2.3864100033895112e-08    
  3.483867258031092e-08    4.8796832381966804e-08    6.581525413408614e-08    7.993189591999664e-08    9.43303496435206e-08    
  1.0856425432306516e-07    1.027952522555289e-07    1.085521018542695e-07    9.43537410224367e-08    7.993752339347625e-08    
  6.58099452391399e-08    4.8786204142511986e-08    3.4842979984152685e-08    2.386869861774453e-08    1.5662337595063393e-08    
  9.787561177311578e-09    5.882492174040066e-09    3.3858005280418676e-09    1.8932918976685335e-09    1.0258121379997853e-09    
  5.531511828574824e-10    3.009751406687874e-10    1.7818418252178734e-10    1.2074159931553858e-10    1.0589370646231984e-10    
  1.2466644931922787e-10    1.422993999450825e-10    2.108107818830678e-10    3.58749325328365e-10    6.621097019690048e-10    
  1.2335864914952584e-09    2.2866371008395922e-09    4.11410765125096e-09    7.182270961382136e-09    1.2003213421988347e-08    
  1.9316039103091614e-08    2.9550225171194748e-08    4.3853544103586555e-08    6.482047056471499e-08    8.530794637151494e-08    
  1.0681868720782006e-07    1.2005190837978716e-07    1.3430087246514292e-07    1.4171025383249967e-07    1.3428367780388157e-07    
  1.2012308316915826e-07    1.068410445888488e-07    8.531599005996674e-08    6.480946454518644e-08    4.3848433532403915e-08    
  2.955922389444646e-08    1.9318966329963208e-08    1.2002396094347603e-08    7.183396588152918e-09    4.11316584503712e-09    
  2.289377878461439e-09    1.2338725205571236e-09    6.622933290853402e-10    3.58231423459875e-10    2.1097439207988827e-10    
  1.4221829373022126e-10    1.2466644931922787e-10    1.401092989087213e-10    1.6015243614874444e-10    2.380002336229007e-10    
  4.0646143828100574e-10    7.535618159414927e-10    1.4083041123274926e-09    2.6221888987607164e-09    4.729658090531337e-09    
  8.295191857366791e-09    1.3896145078941296e-08    2.2472521053393478e-08    3.4454466223732234e-08    5.17600516056136e-08    
  7.755083060688648e-08    9.343807394211457e-08    1.226411542929479e-07    1.4339626876182327e-07    1.5043763703385005e-07    
  1.5949602009998918e-07    1.5042801660218752e-07    1.4341424225260822e-07    1.227435463661041e-07    9.347185307030891e-08    
  7.753744988143178e-08    5.176442369706218e-08    3.444202127510489e-08    2.2475586084732738e-08    1.3893618418016559e-08    
  8.295481890167035e-09    4.7286239643651806e-09    2.624896212735372e-09    1.4086640348164528e-09    7.537319512392319e-10    
  4.0583932677198e-10    2.3816966116635625e-10    1.6001463558163775e-10    1.401092989087213e-10    1.500293085915442e-10    
  1.721566679893767e-10    2.5566065655746704e-10    4.387935119719404e-10    8.134872383979435e-10    1.5268309702947112e-09    
  2.8442008799844076e-09    5.150598053467387e-09    9.035220062431652e-09    1.5202141306685025e-08    2.45712095566696e-08    
  3.784732935596701e-08    5.619122798369092e-08    8.284488099816328e-08    1.1231531591742413e-07    1.3823681216563774e-07    
  1.5505272366519001e-07    1.7219408428259592e-07    1.8039291079572656e-07    1.722903743668487e-07    1.5489505088612678e-07    
  1.3829581797504163e-07    1.122383038353786e-07    8.289329275041934e-08    5.621197404947817e-08    3.786274785232186e-08    
  2.4573338734020018e-08    1.5198956800659596e-08    9.035620087510261e-09    5.148776509546674e-09    2.846735560869595e-09    
  1.5272156481733899e-09    8.136111571558132e-10    4.3809868042007507e-10    2.5581780418851095e-10    1.720541362266977e-10    
  1.500293085915442e-10    1.5335858060156295e-10    1.7641926668013292e-10    2.616325385595075e-10    4.504063734320576e-10    
  8.342167025961255e-10    1.5691532151355262e-09    2.9223097067059143e-09    5.300430654444836e-09    9.296591512006913e-09    
  1.5668807796161648e-08    2.532372727583203e-08    3.9057968788897974e-08    5.756611178101695e-08    8.13813969997272e-08    
  1.1087505850623842e-07    1.3571807243800767e-07    1.5843360855450602e-07    1.8071583922616562e-07    1.8323950105302202e-07    
  1.8080205697609705e-07    1.5830658032164668e-07    1.3578811453579491e-07    1.1077602194044526e-07    8.135799785210142e-08    
  5.757839716756003e-08    3.906107233674369e-08    2.5318084401966803e-08    1.567140658704657e-08    9.295031913860154e-09    
  5.299826103801357e-09    2.9240544877104753e-09    1.5694930309932646e-09    8.339231257473776e-10    4.497051371648079e-10    
  2.617491159933011e-10    1.7645966147857515e-10    1.5335858060156295e-10    1.500581266035025e-10    1.7209051954894623e-10    
  2.5568211019166005e-10    4.3885789638372226e-10    8.13611972984037e-10    1.526927226976764e-09    2.844548622674836e-09    
  5.150554570579517e-09    9.035097505869287e-09    1.520362925385736e-08    2.4578466358333973e-08    3.7856580108773514e-08    
  5.619020528347367e-08    8.289088187152826e-08    1.1230153930415222e-07    1.3829821389807758e-07    1.5499110522197504e-07    
  1.721108531255289e-07    1.8038773888105873e-07    1.7224557148581098e-07    1.548905163474106e-07    1.382845726259898e-07    
  1.123056309487576e-07    8.291426909244095e-08    5.618355728039086e-08    3.7847221637207285e-08    2.4571913026962166e-08    
  1.520283185685764e-08    9.03512182659244e-09    5.148846476124802e-09    2.8469322852792677e-09    1.5267219631693571e-09    
  8.134656460994807e-10    4.380648988682798e-10    2.557162091796328e-10    1.7210488340822696e-10    1.500581266035025e-10    
  1.4015009017567366e-10    1.6007478926844137e-10    2.3808490402993945e-10    4.0664030892918025e-10    7.537270254156873e-10    
  1.4083561364682193e-09    2.6229535997696317e-09    4.729426787264033e-09    8.294167664094738e-09    1.3895158940152933e-08    
  2.2467871076881625e-08    3.44466886974787e-08    5.1756377638842355e-08    7.753298152596566e-08    9.34457841222565e-08    
  1.2271085864693304e-07    1.4339695567686646e-07    1.5052206096414815e-07    1.594281349795661e-07    1.5047097217327954e-07    
  1.4344751252686024e-07    1.2265814341459243e-07    9.346177394768093e-08    7.753225080111498e-08    5.176749868351378e-08    
  3.445758971632325e-08    2.2473269320007236e-08    1.3896483512935251e-08    8.294036838652515e-09    4.728750125189582e-09    
  2.6237509335127937e-09    1.4086002564917645e-09    7.535177837709458e-10    4.0581318472440357e-10    2.3794479593320543e-10    
  1.600656495532849e-10    1.4015009017567366e-10    1.2471181234562727e-10    1.4226134947194514e-10    2.109639493867779e-10    
  3.588991458277274e-10    6.622898423129756e-10    1.2335585042379763e-09    2.287654352398407e-09    4.114618964772895e-09    
  7.181557577451768e-09    1.2002235033410733e-08    1.931603102382569e-08    2.954764781113346e-08    4.387546320010758e-08    
  6.483364345790637e-08    8.533758815289689e-08    1.0687941766462e-07    1.2009796529575693e-07    1.3426350326068825e-07    
  1.4175642502858603e-07    1.3421971160358054e-07    1.2009298978591923e-07    1.0685969059647616e-07    8.532139606565476e-08    
  6.485725714850342e-08    4.383908082487401e-08    2.9564332016974937e-08    1.931640342007075e-08    1.2003907352408269e-08    
  7.184421373634569e-09    4.1122929441240925e-09    2.2888346283593083e-09    1.2335672521324597e-09    6.6215207713403e-10    
  3.5814585342178136e-10    2.1069235473969928e-10    1.4222766019903868e-10    1.2471181234562727e-10    1.059530906399089e-10    
  1.2077751106552357e-10    1.7822611590350542e-10    3.015673791696102e-10    5.533032786773678e-10    1.0251454751557057e-09    
  1.891903675561118e-09    3.38694933987287e-09    5.883555718972335e-09    9.788253993719775e-09    1.5662455205659558e-08    
  2.3857323952535143e-08    3.485375519639849e-08    4.879489359722274e-08    6.580881783688226e-08    7.996008455600739e-08    
  9.436523415649908e-08    1.0854484881771472e-07    1.0280436576720496e-07    1.0856709596105971e-07    9.43277081309301e-08    
  7.993311314137773e-08    6.582667252539004e-08    4.87855877816622e-08    3.4855360837432145e-08    2.3872595208580002e-08    
  1.5658857601701827e-08    9.789806034532588e-09    5.8819117006093345e-09    3.3859609633812016e-09    1.892559515582821e-09    
  1.0256041673301284e-09    5.530888422055358e-10    3.009182801521678e-10    1.7786410817519643e-10    1.206807391551971e-10    
  1.059530906399089e-10    8.591421746197692e-11    9.80578728848298e-11    1.4353419557804505e-10    2.4155912545892986e-10    
  4.3961073448916604e-10    8.101248903452949e-10    1.484354867908791e-09    2.6434055921074185e-09    4.561028387288901e-09    
  7.548423994877597e-09    1.2005174514247777e-08    1.8194894225394138e-08    2.6346175578128176e-08    3.6132622100497576e-08    
  4.7055521747987854e-08    5.788872186487126e-08    6.944048131553736e-08    8.100563598544009e-08    8.136735586777838e-08    
  8.100314400419446e-08    6.941684010263327e-08    5.7897114903361593e-08    4.7027998104546235e-08    3.61452543385496e-08    
  2.6340505472424896e-08    1.819445499039296e-08    1.2003949751802662e-08    7.548707125700498e-09    4.560477239167416e-09    
  2.6424819945945227e-09    1.4849692021102966e-09    8.104424881412319e-10    4.3951835132063794e-10    2.4102459876301217e-10    
  1.4324665235765013e-10    9.795876802576589e-11    8.591421746197692e-11    6.651454998535831e-11    7.62204704329432e-11    
  1.1029745179801256e-10    1.8478846534744285e-10    3.3256449128068717e-10    6.09275576251965e-10    1.1063071666027542e-09    
  1.9585378583443204e-09    3.353008106598305e-09    5.517044043335516e-09    8.70552126426844e-09    1.3128131616844948e-08    
  1.8865493382683228e-08    2.5800077505251743e-08    3.3515805607000335e-08    4.109075548144322e-08    4.773121558155617e-08    
  5.3686920605129923e-08    5.6724165531187486e-08    5.366666338333107e-08    4.775471263521992e-08    4.109008693201897e-08    
  3.3505377094859755e-08    2.579799612338849e-08    1.8862815792893303e-08    1.313093154058891e-08    8.705001042354525e-09    
  5.518715806699208e-09    3.3523304899587543e-09    1.9585460639703303e-09    1.1062878007036787e-09    6.095056655099033e-10    
  3.325708604638808e-10    1.8435972356676079e-10    1.1011197176271566e-10    7.61595754748185e-11    6.651454998535831e-11    
  4.9504898881625014e-11    5.6545619373051534e-11    8.130545855001047e-11    1.348884656410341e-10    2.4033357898791563e-10    
  4.3627998705518457e-10    7.849938317922623e-10    1.379559648885305e-09    2.342253129790338e-09    3.827428747411555e-09    
  5.994782668331258e-09    8.975961948778907e-09    1.28127149778512e-08    1.7403359009533818e-08    2.2395844498596383e-08    
  2.7376088383834854e-08    3.1688631363438715e-08    3.4568917156813036e-08    3.554461198214918e-08    3.457691968794775e-08    
  3.168452568850389e-08    2.7378763617758774e-08    2.240310664523709e-08    1.7395479205561306e-08    1.2818048337554314e-08    
  8.976590657140571e-09    5.992527573871697e-09    3.827972714271841e-09    2.3425293358943078e-09    1.3793727356024034e-09    
  7.850157694723254e-10    4.3656964307033316e-10    2.4030695087105715e-10    1.3458353346939181e-10    8.11146981237352e-11    
  5.649045793827693e-11    4.9504898881625014e-11    3.5351529161263284e-11    4.0275479860784104e-11    5.742122133610463e-11    
  9.429270864260634e-11    1.6596582833415108e-10    2.982500887077214e-10    5.314153151138185e-10    9.254085610356429e-10    
  1.5589236705799498e-09    2.5251176298750697e-09    3.926554376002482e-09    5.834292394590498e-09    8.275221766842216e-09    
  1.1174803335528126e-08    1.435370737096915e-08    1.744624606968282e-08    2.0065028578626785e-08    2.1873415257972063e-08    
  2.2548755941161062e-08    2.187784229152692e-08    2.0063348739551938e-08    1.7445798660294033e-08    1.4356287027897677e-08    
  1.1173802263743631e-08    8.273807635531371e-09    5.835537544188908e-09    3.924754309944195e-09    2.525383855056416e-09    
  1.5584238324423574e-09    9.254052404858642e-10    5.314150935655535e-10    2.9838037338060455e-10    1.660094880149036e-10    
  9.403867597933151e-11    5.723992430990128e-11    4.022286663458676e-11    3.5351529161263284e-11    2.4316051088499383e-11    
  2.757939060675211e-11    3.9017653793554765e-11    6.315748907968409e-11    1.099475061818129e-10    1.9510349332795312e-10    
  3.4400190751793857e-10    5.929768683932249e-10    9.902732361731584e-10    1.5899570886070595e-09    2.4519718884729064e-09    
  3.615967104081545e-09    5.090620931830718e-09    6.830378659879632e-09    8.694487481796966e-09    1.0533687321215594e-08    
  1.211425443810906e-08    1.3139808256323132e-08    1.3493170441483854e-08    1.3140209349484599e-08    1.2107856320427016e-08    
  1.0532567688101189e-08    8.694960623344145e-09    6.824801637649652e-09    5.092528037542649e-09    3.617839997625847e-09    
  2.451337015794474e-09    1.5902401590833623e-09    9.901141940197622e-10    5.930800982449963e-10    3.439577917532337e-10    
  1.9525784164432716e-10    1.0996144814628572e-10    6.293596724753407e-11    3.8861929300313554e-11    2.7556596057251615e-11    
  2.4316051088499383e-11    1.612247945848124e-11    1.8227632364245226e-11    2.5506272808728692e-11    4.073594933311959e-11    
  7.000244153391996e-11    1.2267867730013312e-10    2.1345534895609204e-10    3.641060698139918e-10    6.019255601406142e-10    
  9.577760571295755e-10    1.4647113409174225e-09    2.143657680493055e-09    2.9968921346548916e-09    3.9978852165064415e-09    
  5.0770108824034455e-09    6.112066440268119e-09    6.98848814139634e-09    7.589106978070307e-09    7.804657940770688e-09    
  7.590257361461946e-09    6.9852978863394456e-09    6.1135398424084704e-09    5.082431171389442e-09    3.997022102737429e-09    
  2.9947801359652777e-09    2.14507477555028e-09    1.4639532409339085e-09    9.580775303102564e-10    6.01877530681883e-10    
  3.640929687111483e-10    2.135251568024591e-10    1.2268095871568342e-10    6.99597490602381e-11    4.05553740709655e-11    
  2.538760065951783e-11    1.8243347664504355e-11    1.612247945848124e-11    1.0367501035747619e-11    1.16342383253295e-11    
  1.6159383898842573e-11    2.5341336901984803e-11    4.3047047150361115e-11    7.435689875009024e-11    1.2759304512951303e-10    
  2.149879362348347e-10    3.519746201258364e-10    5.540621118530513e-10    8.401834611016864e-10    1.2190967941403957e-09    
  1.6923933892484024e-09    2.2414188501990184e-09    2.821843856015308e-09    3.3847703526780475e-09    3.872460998495567e-09    
  4.17929363981363e-09    4.288231196789726e-09    4.1830608865021144e-09    3.867714868650104e-09    3.3874707153618047e-09    
  2.8195427758229397e-09    2.2374308223857354e-09    1.6912454728996637e-09    1.2190195350791822e-09    8.396826993433701e-10    
  5.540637016238101e-10    3.5164497612527704e-10    2.1509116775072137e-10    1.2761296309353094e-10    7.427140237025991e-11    
  4.296621035729964e-11    2.5224655496455325e-11    1.6079026101808215e-11    1.1666342010013524e-11    1.0367501035747619e-11    