#     DFTpy    
  CRYSTAL 
    
  PRIMVEC    
  20.2080089581052    0.0    0.0    
  0.0    20.8591327648086    0.0    
  0.0    0.0    18.9388328781969    
  PRIMCOORD    
  8    1    
  Mg    10.1040044790526    10.4295663824043    8.000000000000009    
  Mg    10.1040044790526    10.4295663824043    10.938832878196893    
  Mg    10.1040044790526    8.000000000000005    9.46941643909845    
  Mg    12.208008958105179    9.214783191202152    9.46941643909845    
  Mg    12.208008958105179    11.644349573606448    9.46941643909845    
  Mg    10.1040044790526    12.859132764808594    9.46941643909845    
  Mg    8.000000000000023    11.644349573606448    9.46941643909845    
  Mg    8.000000000000023    9.214783191202152    9.46941643909845    
  BEGIN_BLOCK_DATAGRID_3D    
  3d_datagrid_density    
  BEGIN_DATAGRID_3D#0    
  37    37    33    
  0.0    0.0    0.0    
  20.2080089581052    0.0    0.0    
  0.0    20.8591327648086    0.0    
  0.0    0.0    18.9388328781969    
  1.7940188152858e-12    1.6496338305023914e-12    1.766852782496576e-12    1.5974820149477732e-12    1.6898658077530394e-12    
  1.5142431785297825e-12    1.6191702691274363e-12    1.4959615524970613e-12    1.6953757301669691e-12    1.7031975926804273e-12    
  2.095945906833102e-12    2.3049255059521786e-12    2.963390239757121e-12    3.4243921491816515e-12    4.494458023334491e-12    
  4.87365352693188e-12    5.471190742697339e-12    5.7666948116728e-12    6.4174335724925915e-12    5.768274920569908e-12    
  5.47413734804968e-12    4.877630180862673e-12    4.499192251974323e-12    3.4291504086670793e-12    2.968204787880898e-12    
  2.3092841733201796e-12    2.0999674729384395e-12    1.7064597796895497e-12    1.6980794539569603e-12    1.4978860559405932e-12    
  1.6205403565856068e-12    1.5150486288063517e-12    1.6903142888886296e-12    1.5976735340156604e-12    1.766928073375087e-12    
  1.6496503357216513e-12    1.7940188152858e-12    1.6173890420286663e-12    1.7494098813860422e-12    1.600400159257081e-12    
  1.7143550586537896e-12    1.5539896881648193e-12    1.6667750752391106e-12    1.53368000016355e-12    1.7106759561195238e-12    
  1.6825500997442118e-12    2.029459359533248e-12    2.196297094091012e-12    2.8198276364356043e-12    3.2355388076414067e-12    
  4.100484286706746e-12    4.4647301166543625e-12    5.531054516909675e-12    6.162425852386655e-12    6.70406916058516e-12    
  6.329069805159316e-12    6.7054696473213096e-12    6.165035627290154e-12    5.534608235196743e-12    4.4687878679532645e-12    
  4.105093007053401e-12    3.24012597512909e-12    2.824355880055499e-12    2.200265303373958e-12    2.032976370343776e-12    
  1.6852636142219011e-12    1.7127945054805568e-12    1.53507962849736e-12    1.6676843823485762e-12    1.5544599000102486e-12    
  1.7145817438643437e-12    1.6004827132984248e-12    1.7494314782136863e-12    1.6173890420286663e-12    1.645677145350974e-12    
  1.5159524899412227e-12    1.655779709731861e-12    1.5360878450526777e-12    1.6938320172328946e-12    1.604505987957976e-12    
  1.8307530780353068e-12    1.845046187793958e-12    2.2579883563161205e-12    2.498846317835079e-12    3.264568171236336e-12    
  3.865118671430119e-12    5.105778667891121e-12    6.134435183514949e-12    7.997643887985142e-12    8.900642823374887e-12    
  1.0020139959153223e-11    1.0638216319195343e-11    1.1603398925423898e-11    1.0639574767806583e-11    1.0022767814286667e-11    
  8.904344996906978e-12    8.002327651940851e-12    6.139526116963934e-12    5.111224153529004e-12    3.870334500834821e-12    
  3.2694966249634766e-12    2.5029379100412176e-12    2.261370791106748e-12    1.8474645595764627e-12    1.832472896265006e-12    
  1.6055284044087868e-12    1.6944146602065964e-12    1.5363501322156573e-12    1.6558903170159957e-12    1.5159816915193677e-12    
  1.645677145350974e-12    1.3770193741140501e-12    1.5167841693322266e-12    1.428869548825449e-12    1.6293152682165552e-12    
  1.6044386248211317e-12    1.911485915792425e-12    2.0196107573057813e-12    2.571696726700312e-12    2.9842455850060555e-12    
  4.041448615297728e-12    5.017691717066336e-12    6.86924049705766e-12    8.573203512047808e-12    1.1125919197081306e-11    
  1.287280724331135e-11    1.5763123477387453e-11    1.7748027973324497e-11    1.9234383881331615e-11    1.8764896551420346e-11    
  1.923571498715091e-11    1.7750656219614647e-11    1.576705386729644e-11    1.287784652238686e-11    1.1132121454278532e-11    
  8.579941878876938e-12    6.876183615171717e-12    5.023995768488073e-12    4.0469634860224e-12    2.9884519064076223e-12    
  2.5748433241141896e-12    2.0216295024433238e-12    1.91275904622768e-12    1.6050995431195788e-12    1.62964221885146e-12    
  1.4289981619758264e-12    1.5168251410112903e-12    1.3770193741140501e-12    1.3700969249844918e-12    1.27589060526705e-12    
  1.4843134126465084e-12    1.506469390501503e-12    1.8830897699236367e-12    2.098715230787623e-12    2.8176220106246804e-12    
  3.4641761002858184e-12    4.91959145300731e-12    6.457259711407732e-12    9.240116171053575e-12    1.218395265441327e-11    
  1.6669014471173265e-11    2.1096787532364266e-11    2.722849722971883e-11    3.1383992640136855e-11    3.5481378373184644e-11    
  3.804453958803834e-11    4.040905558491803e-11    3.804575636264143e-11    3.548395543085323e-11    3.1388142685309607e-11    
  2.7234494154475238e-11    2.1104292180359653e-11    1.6677760740139127e-11    1.2192913028171673e-11    9.248654830184786e-12    
  6.4643552529698246e-12    4.925176520533631e-12    3.4679923046767477e-12    2.82014408322439e-12    2.1001394767435563e-12    
  1.8838690448620355e-12    1.5068159471918385e-12    1.4844621762705013e-12    1.2759346000683737e-12    1.3700969249844918e-12    
  1.170098308428828e-12    1.3339147109837014e-12    1.3549846663214898e-12    1.7527392355180957e-12    2.0424772238600894e-12    
  2.8956409377238143e-12    3.771863998219952e-12    5.644640246901754e-12    7.844357307656502e-12    1.1780416766735334e-11    
  1.6411632742863175e-11    2.351825266412756e-11    3.121590081636994e-11    4.114872630129413e-11    4.974114652027275e-11    
  6.045638528703396e-11    6.857024224258378e-11    7.424414744618318e-11    7.41719106476978e-11    7.42450033487329e-11    
  6.857230173368874e-11    6.046026372041454e-11    4.97472880308088e-11    4.115741205430752e-11    3.12263843741034e-11    
  2.352958625038436e-11    1.642223734837286e-11    1.1789500499579302e-11    7.851109260035164e-12    5.6493441650965484e-12    
  3.7746974160892e-12    2.89728025218488e-12    2.0432744126144047e-12    1.7531122815210946e-12    1.3551279437134675e-12    
  1.3339619643084341e-12    1.170098308428828e-12    1.2906691764454498e-12    1.2412206676251366e-12    1.5939470706206314e-12    
  1.887877049914469e-12    2.7918193717400313e-12    3.818001678673451e-12    6.0160925306442535e-12    8.823177543495587e-12    
  1.3919714864761378e-11    2.045595310745449e-11    3.07782406846957e-11    4.312409022546926e-11    6.005461866699616e-11    
  7.82321275875361e-11    1.0040821313922718e-10    1.183744600243892e-10    1.3407663687607432e-10    1.4535083829277874e-10    
  1.5241431188399063e-10    1.453510344183933e-10    1.340777021126605e-10    1.183774209798731e-10    1.0041410294324559e-10    
  7.824114717244957e-11    6.006632009040584e-11    4.3136893450768116e-11    3.079065026855325e-11    2.0466315212800404e-11    
  1.3927579320659415e-11    8.828343354588759e-12    6.0192536696777345e-12    3.819667219854788e-12    2.792650643010515e-12    
  1.888223659341223e-12    1.5940898171218582e-12    1.2412609983728914e-12    1.2906691764454498e-12    1.2881303580105813e-12    
  1.5190580277787526e-12    1.7313351665518283e-12    2.5763256121610963e-12    3.6180681416407683e-12    5.942235332666055e-12    
  9.128333753833604e-12    1.5091665023156842e-11    2.333018399365091e-11    3.6834914912393266e-11    5.436294257333263e-11    
  7.941580334855632e-11    1.0884887034296512e-10    1.4515443297019327e-10    1.786376682748635e-10    2.1634784435242746e-10    
  2.483225817455656e-10    2.690834042725694e-10    2.7190110528406155e-10    2.690827152407628e-10    2.4832211801016705e-10    
  2.1634909080570554e-10    1.7864198940779238e-10    1.4516260141642055e-10    1.0886022794747852e-10    7.942891856832391e-11    
  5.437567904987116e-11    3.6845829352334755e-11    2.3338229352803788e-11    1.5097040117759925e-11    9.131433390796747e-12    
  5.943899633310412e-12    3.618828247899881e-12    2.5766554106692112e-12    1.7314571810686762e-12    1.5190948052010054e-12    
  1.2881303580105813e-12    1.6827288914614693e-12    1.7025146366067799e-12    2.3818372562047443e-12    3.2863820753272396e-12    
  5.4955635951181e-12    8.710920514482457e-12    1.500598948083005e-11    2.4269038761542927e-11    4.014450748944654e-11    
  6.231839066751648e-11    9.574451583353089e-11    1.377618296263634e-10    1.9375329304169097e-10    2.577124717043576e-10    
  3.308085318587691e-10    3.932332241082749e-10    4.4810585952983957e-10    4.859927453374841e-10    5.051802971940885e-10    
  4.859910709252624e-10    4.4810364052443304e-10    3.932322624058365e-10    3.308106443940263e-10    2.5771849898355085e-10    
  1.9376291444284127e-10    1.3777343071430624e-10    9.575625556870345e-11    6.232839851202683e-11    4.015203789196462e-11    
  2.4273916847801346e-11    1.5008851858596422e-11    8.712371435243328e-12    5.496245763150545e-12    3.2866529941523465e-12    
  2.381946421072504e-12    1.7025446984460625e-12    1.6827288914614693e-12    1.9877065968575646e-12    2.377949110253599e-12    
  3.0000379877323738e-12    4.875903363712997e-12    7.752435027267184e-12    1.3733759144483306e-11    2.3020402005759052e-11    
  3.975498645786989e-11    6.463739252338675e-11    1.0445985273143572e-10    1.5898576673863802e-10    2.34540124662886e-10    
  3.2681200552648306e-10    4.3639011302594725e-10    5.47009206480895e-10    6.685792234474993e-10    7.703741680766713e-10    
  8.312061217690215e-10    8.432072106695884e-10    8.312036576388827e-10    7.703704142868451e-10    6.685761788594025e-10    
  5.47008734586139e-10    4.363933535792462e-10    3.268187227246014e-10    2.345491055494198e-10    1.5899509843683956e-10    
  1.0446806331203205e-10    6.464350082281978e-11    3.975902697936886e-11    2.3022695451817466e-11    1.373495142983693e-11    
  7.752961585887536e-12    4.876124411970195e-12    3.0001210055701665e-12    2.3779751434044346e-12    1.9877065968575646e-12    
  2.8113163759317868e-12    2.9722396530161696e-12    4.3463820567613455e-12    6.599426822616249e-12    1.1708186195914573e-11    
  2.002916232364534e-11    3.58579422882396e-11    6.075225484938118e-11    1.0280288130968764e-10    1.6437590840065263e-10    
  2.5523238696575955e-10    3.733533945544898e-10    5.294518811173169e-10    7.139226078309153e-10    9.199272165601326e-10    
  1.1044730811772049e-09    1.2668443625488532e-09    1.3811543423393872e-09    1.433048719458808e-09    1.381151453951829e-09    
  1.266839767244633e-09    1.104468589819893e-09    9.199247348595388e-10    7.13923202348136e-10    5.294556123952687e-10    
  3.733591787901468e-10    2.552388856035049e-10    1.643817128239438e-10    1.0280733013803997e-10    6.075514961773598e-11    
  3.5859628293109076e-11    2.0030007128579124e-11    1.170857581338126e-11    6.599581357654138e-12    4.3464430353816134e-12    
  2.972256818631135e-12    2.8113163759317868e-12    3.504330077462481e-12    4.196149760602229e-12    5.634769349257423e-12    
  9.538174673126981e-12    1.6177078966954674e-11    2.9621148215275584e-11    5.17752467012008e-11    9.12299103884365e-11    
  1.5265373994762362e-10    2.493270853529792e-10    3.8386659650972484e-10    5.74975326420835e-10    8.126797371328319e-10    
  1.0939241274061505e-09    1.3912549010393465e-09    1.6993582150511483e-09    1.9760448608197842e-09    2.162923687734615e-09    
  2.2169817700808393e-09    2.1629208908821143e-09    1.9760402395707367e-09    1.6993534380099879e-09    1.3912514458450374e-09    
  1.0939230521318564e-09    8.126810621057895e-10    5.749784809276776e-10    3.8387042109581496e-10    2.4933072720934366e-10    
  1.5265653253805654e-10    9.123179130397157e-11    5.1776316974900944e-11    2.962170889999822e-11    1.6177327192177745e-11    
  9.53828188162043e-12    5.63480678720499e-12    4.196161835759719e-12    3.504330077462481e-12    4.802906894695417e-12    
  5.21858790208086e-12    7.79118926566745e-12    1.2451285897005972e-11    2.2713987113068894e-11    4.0372392490253085e-11    
  7.358186070433028e-11    1.2730995426940552e-10    2.1817523411724418e-10    3.5387903496979913e-10    5.574940947158988e-10    
  8.332032076419009e-10    1.1891883884383283e-09    1.6075500867488198e-09    2.114862670894493e-09    2.5826415289291705e-09    
  3.030848400716312e-09    3.797828123009739e-09    4.3690991035764166e-09    3.797825576648072e-09    3.030844485291401e-09    
  2.5826372539382483e-09    2.114859310719934e-09    1.6075483172497858e-09    1.1891884277325453e-09    8.332045185731784e-10    
  5.574960941050737e-10    3.5388098361806194e-10    2.181768240176092e-10    1.2731100373757285e-10    7.35824949097338e-11    
  4.0372711010830644e-11    2.2714141405302817e-11    1.2451346633202516e-11    7.791215972582936e-12    5.218594289923148e-12    
  4.802906894695417e-12    5.85971902897496e-12    6.803377856988397e-12    9.725285754370529e-12    1.6442482478391466e-11    
  2.938737389164452e-11    5.399444503154579e-11    9.75491636244457e-11    1.721981226165938e-10    2.955709132554186e-10    
  4.840788027643846e-10    7.663680845345076e-10    1.1452441091719051e-09    1.6497994832430422e-09    2.248976176129675e-09    
  2.9002477132989995e-09    3.5286190128149954e-09    4.8425742243570485e-09    7.321459266569081e-09    6.646227455803723e-09    
  7.321457165817358e-09    4.8425711731806155e-09    3.5286159341987345e-09    2.900245071582794e-09    2.24897461342192e-09    
  1.649798961616113e-09    1.1452445333598103e-09    7.663689163417053e-10    4.840797630298168e-10    2.955716721999143e-10    
  1.7219866852423478e-10    9.754947191444868e-11    5.399461582757321e-11    2.938744721094471e-11    1.6442516985307653e-11    
  9.725299219838911e-12    6.803381484118632e-12    5.85971902897496e-12    7.469681961004496e-12    7.889907156314669e-12    
  1.2410681162411165e-11    1.976533696028324e-11    3.762024682514603e-11    6.692271867831482e-11    1.2535383033197737e-10    
  2.1783491438789145e-10    3.818896765469352e-10    6.240166505200021e-10    9.98905882999765e-10    1.4839329834785055e-09    
  2.2150389672143138e-09    3.2509339483990586e-09    4.955904709237624e-09    5.685672209698444e-09    7.1114796672359085e-09    
  1.0187841425231319e-08    6.9631710110547825e-09    1.018784005759378e-08    7.111477680959556e-09    5.6856699775185655e-09    
  4.955902759489575e-09    3.250932664600258e-09    2.215038457638941e-09    1.4839329174164178e-09    9.98906180215137e-10    
  6.240169772424776e-10    3.8189000119743566e-10    2.17835110360732e-10    1.2535396264656576e-10    6.692277028246913e-11    
  3.762027682575908e-11    1.976534370182376e-11    1.2410687037751463e-11    7.889907035768123e-12    7.469681961004496e-12    
  8.346243577071751e-12    9.556141488841473e-12    1.4128270064754888e-11    2.3945556707665214e-11    4.4068255834742675e-11    
  8.137070287638571e-11    1.508925133144971e-10    2.6698413612483877e-10    4.6287660999915437e-10    7.643106899053562e-10    
  1.2241228908775135e-09    1.8380301773834462e-09    2.921434363582991e-09    5.394196966182492e-09    7.460142462525091e-09    
  1.0049960081309293e-08    9.609278088577871e-09    1.1631661118538359e-08    1.318526160543323e-08    1.1631660317662062e-08    
  9.609276794182122e-09    1.0049958504120295e-08    7.460140991409025e-09    5.394195996473591e-09    2.921433774970945e-09    
  1.8380299790845816e-09    1.2241227963366702e-09    7.643107343587291e-10    4.628766159511685e-10    2.6698416616346364e-10    
  1.508925024411865e-10    8.137069979043319e-11    4.4068240362687784e-11    2.3945551638342826e-11    1.4128266701314162e-11    
  9.556142781792025e-12    8.346243577071751e-12    9.612257145987441e-12    1.0334350303932307e-11    1.625886719845966e-11    
  2.6471515275882088e-11    5.070920996416161e-11    9.163158807077817e-11    1.7410881460988001e-10    3.0468541427615514e-10    
  5.360070449600603e-10    8.75288234371981e-10    1.4275864711162982e-09    2.123807705122977e-09    3.561077328721517e-09    
  7.020732197493159e-09    6.394361991831419e-09    1.0308235536595846e-08    1.182277705909246e-08    1.0275656558160331e-08    
  1.2417060784039645e-08    1.0275656104882068e-08    1.1822776194284643e-08    1.0308234414666487e-08    6.394361129562516e-09    
  7.020731213621396e-09    3.5610767850216208e-09    2.123807274391304e-09    1.4275862342468575e-09    8.752880127692495e-10    
  5.360069208523807e-10    3.046852896236036e-10    1.7410874909804528e-10    9.163152843167585e-11    5.070917736252334e-11    
  2.647149244533366e-11    1.6258861267115327e-11    1.0334351341775747e-11    9.612257145987441e-12    9.856240780713051e-12    
  1.146168642279415e-11    1.6889777617804688e-11    2.9152837221181013e-11    5.3690246115108125e-11    1.0029786803298672e-10    
  1.855331286648487e-10    3.3405603017146464e-10    5.804602577648979e-10    9.620815009455846e-10    1.544101137303075e-09    
  2.3532717718567313e-09    3.6505134703392925e-09    6.916887051812813e-09    1.0763477439531395e-08    1.2497824729638339e-08    
  1.1721463998998137e-08    1.575187628630615e-08    1.8779050581603128e-08    1.5751875862880557e-08    1.1721463231584543e-08    
  1.2497823820527252e-08    1.076347634756214e-08    6.916886233738356e-09    3.650512772666154e-09    2.3532713167275306e-09    
  1.544100700220945e-09    9.620812239767656e-10    5.804599942651053e-10    3.3405587354090764e-10    1.85533000198424e-10    
  1.0029780005734727e-10    5.369019159404758e-11    2.915281076673334e-11    1.688976488579557e-11    1.1461686447335756e-11    
  9.856240780713051e-12    1.0405157943471303e-11    1.1362028011979575e-11    1.7715481375113903e-11    2.930609312638989e-11    
  5.580390815777091e-11    1.0190164531849162e-10    1.9161212449135597e-10    3.419135963325766e-10    5.994266094258442e-10    
  9.891251145093058e-10    1.5890413975898012e-09    2.425772827731842e-09    3.5956680772722127e-09    5.384449853422184e-09    
  8.542137886156475e-09    9.66482669538519e-09    1.1716599042764248e-08    1.8974519953569722e-08    1.887651620071798e-08    
  1.8974519511217218e-08    1.1716598436372835e-08    9.664825888692727e-09    8.542137110535151e-09    5.384449087965231e-09    
  3.5956675402045105e-09    2.4257723080998856e-09    1.5890410628435987e-09    9.891247932110655e-10    5.994264061075557e-10    
  3.419134105363577e-10    1.9161202062519389e-10    1.0190155995491735e-10    5.5803863845966683e-11    2.9306062085908e-11    
  1.771547079432204e-11    1.1362024753128579e-11    1.0405157943471303e-11    9.856211582217031e-12    1.146165400467264e-11    
  1.688973309515275e-11    2.9152774666097305e-11    5.3690164433977215e-11    1.0029776773004118e-10    1.85533017463901e-10    
  3.3405592023505997e-10    5.804601667492207e-10    9.620814335830728e-10    1.5441011023641258e-09    2.3532717436404897e-09    
  3.650513437006596e-09    6.916886967970018e-09    1.0763477293641488e-08    1.2497824501844724e-08    1.172146374018689e-08    
  1.575187594082563e-08    1.8779050234705506e-08    1.5751875651330188e-08    1.1721463159739358e-08    1.2497823904665602e-08    
  1.0763476635565838e-08    6.916886613595824e-09    3.6505131479124482e-09    2.3532716602218896e-09    1.5441009880441293e-09    
  9.620814074881409e-10    5.804600825332329e-10    3.34055875266551e-10    1.8553295191119022e-10    1.0029773066109464e-10    
  5.369012914745877e-11    2.915275996756227e-11    1.6889724888138975e-11    1.1461654274628379e-11    9.856211582217031e-12    
  9.612180528090793e-12    1.0334268895447641e-11    1.6258750796309986e-11    2.647135725331905e-11    5.0708985230261434e-11    
  9.16313147825036e-11    1.7410849640109496e-10    3.046851115910449e-10    5.36006768253749e-10    8.752880222277442e-10    
  1.4275862808131895e-09    2.123807522349586e-09    3.5610770403982063e-09    7.020731703134374e-09    6.394361354155229e-09    
  1.0308234631125652e-08    1.1822775952550919e-08    1.0275655608925269e-08    1.2417059827357603e-08    1.0275655534544192e-08    
  1.1822775947508542e-08    1.0308234718578115e-08    6.3943617849917495e-09    7.020732384647358e-09    3.561077875989605e-09    
  2.123808244894003e-09    1.4275870042556372e-09    8.752885119016806e-10    5.360071347521773e-10    3.046852900901787e-10    
  1.741086078529075e-10    9.163134690059303e-11    5.070900185466066e-11    2.647135735420748e-11    1.625875472487606e-11    
  1.0334272487839094e-11    9.612180528090793e-12    8.346089003093521e-12    9.555964253984678e-12    1.4128031249059263e-11    
  2.3945212801468877e-11    4.4067777584172473e-11    8.137009025675156e-11    1.5089181373425903e-10    2.669834268901976e-10    
  4.6287595899471774e-10    7.643100967562302e-10    1.2241223218718325e-09    1.8380294771321165e-09    2.921433380516959e-09    
  5.394195307264845e-09    7.46014022075332e-09    1.0049957130028403e-08    9.609275160556232e-09    1.1631658026936097e-08    
  1.3185258876443397e-08    1.163165852245181e-08    9.609276232935939e-09    1.0049959131968867e-08    7.460142725076423e-09    
  5.394198369892264e-09    2.9214361060538874e-09    1.8380320201625516e-09    1.2241244192209602e-09    7.643117328912536e-10    
  4.628770303568532e-10    2.669841082002478e-10    1.5089217804811626e-10    8.137028483379892e-11    4.4067859418970594e-11    
  2.3945250899251974e-11    1.4128045291971063e-11    9.555973235337163e-12    8.346089003093521e-12    7.469385261651038e-12    
  7.88958411604687e-12    1.2410223561148786e-11    1.976470095069078e-11    3.761933112709286e-11    6.692156683918218e-11    
  1.253524691198374e-10    2.1783352829769797e-10    3.818883098227717e-10    6.240153648826484e-10    9.989044897576804e-10    
  1.4839312804992293e-09    2.21503654361649e-09    3.2509305197342073e-09    4.955899814132143e-09    5.685666616447202e-09    
  7.1114733188300175e-09    1.0187834412560091e-08    6.9631661322848296e-09    1.0187836026515821e-08    7.111476282160446e-09    
  5.685670839589408e-09    4.955905511554485e-09    3.2509364132799443e-09    2.2150424422101686e-09    1.4839365390162784e-09    
  9.989089643288813e-10    6.240186607668443e-10    3.818905988068488e-10    2.1783489900449428e-10    1.2535327049380364e-10    
  6.692196239211442e-11    3.7619529526747665e-11    1.976478123188096e-11    1.2410259582164503e-11    7.889597405289582e-12    
  7.469385261651038e-12    5.859240607766604e-12    6.802828434373503e-12    9.724548991933112e-12    1.6441415485774917e-11    
  2.9385889897766506e-11    5.3992518997132106e-11    9.754691748130852e-11    1.7219573556507257e-10    2.95568533610672e-10    
  4.84076402441485e-10    7.663654169000151e-10    1.1452406729115258e-09    1.6497947740796743e-09    2.2489697223759087e-09    
  2.9002394990653944e-09    3.5286093076438483e-09    4.842562963738083e-09    7.321446447271716e-09    6.6462174007613604e-09    
  7.3214497833729196e-09    4.84256851524801e-09    3.528616761248508e-09    2.900248717838546e-09    2.2489800058243373e-09    
  1.6498049726007061e-09    1.1452499443009588e-09    7.663730124421046e-10    4.84082095118304e-10    2.955723646477524e-10    
  1.721981091772183e-10    9.754823780702913e-11    5.3993209529363846e-11    2.938620992617808e-11    1.644156007454257e-11    
  9.724605514594735e-12    6.802849492908279e-12    5.859240607766604e-12    4.802194251114488e-12    5.217802521923783e-12    
  7.790109820347326e-12    1.2449773321458183e-11    2.2711847732652223e-11    4.036965826858474e-11    7.357860396121184e-11    
  1.2730647609515806e-10    2.1817162960637228e-10    3.5387528616530714e-10    5.574896989198937e-10    8.331974831285783e-10    
  1.189180470392724e-09    1.607539459824308e-09    2.1148490233273842e-09    2.5826256432276387e-09    3.030831322644914e-09    
  3.797810673343424e-09    4.369083589313311e-09    3.7978154610755185e-09    3.0308400579175026e-09    2.582637883976279e-09    
  2.114863946467475e-09    1.6075554266152693e-09    1.1891962645983887e-09    8.332115599898651e-10    5.575012218494032e-10    
  3.5388376208321283e-10    2.181773855643059e-10    1.273099618782676e-10    7.35805762189994e-11    4.037064919583117e-11    
  2.2712322717950024e-11    1.244997603929589e-11    7.79019419556771e-12    5.2178304458712754e-12    4.802194251114488e-12    
  3.5034431407361548e-12    4.1951211153990296e-12    5.633437117536977e-12    9.536250092555911e-12    1.6174458124266654e-11    
  2.96177177499958e-11    5.177121622338985e-11    9.122545724421653e-11    1.52649054301854e-10    2.4932193300118087e-10    
  3.838604093744566e-10    5.749670090350738e-10    8.12668304762619e-10    1.0939087944285418e-09    1.3912357585623404e-09    
  1.699335972885965e-09    1.9760212994697714e-09    2.1629011785531246e-09    2.216962991098451e-09    2.1629076898258505e-09    
  1.976033767559372e-09    1.6993533863760764e-09    1.3912565182716227e-09    1.0939311869811656e-09    8.126900952128928e-10    
  5.749864406735273e-10    3.8387606109750323e-10    2.493335595876194e-10    1.5265679455009164e-10    9.12301954863937e-11    
  5.177381038110981e-11    2.9619047279697304e-11    1.6175061413768316e-11    9.536518090056879e-12    5.633539081179465e-12    
  4.195158113604735e-12    3.5034431407361548e-12    2.810282119776748e-12    2.971119820795041e-12    4.344867020676125e-12    
  6.5973601899294474e-12    1.1705294709739264e-11    2.0025492414694618e-11    3.585351432328661e-11    6.074736715978549e-11    
  1.0279749920048225e-10    1.6436979414316032e-10    2.552246451434828e-10    3.733429049966086e-10    5.294372753008118e-10    
  7.139030991095751e-10    9.19902733806809e-10    1.1044450989387049e-09    1.2668149931469098e-09    1.3811265310668115e-09    
  1.4330253150801359e-09    1.381135064811129e-09    1.266831294848728e-09    1.1044676793877792e-09    9.199296775775582e-10    
  7.139315751044246e-10    5.294648171905867e-10    3.733671668146545e-10    2.55244373795771e-10    1.643842358887796e-10    
  1.028071905847865e-10    6.075317623757573e-11    3.585673811449917e-11    2.0027081633544868e-11    1.170603197134963e-11    
  6.597663842899951e-12    4.344987808303606e-12    2.971158023169658e-12    2.810282119776748e-12    1.9866990709050524e-12    
  2.3767897780773707e-12    2.9985868646734836e-12    4.8738495903484324e-12    7.74971185749497e-12    1.3730213438373428e-11    
  2.3016213277262592e-11    3.9750187431162165e-11    6.463201403009495e-11    1.0445336171220549e-10    1.5897728424863406e-10    
  2.345282520525788e-10    3.26795526410822e-10    4.36368152313198e-10    5.469821593931857e-10    6.685480939755168e-10    
  7.70341609124031e-10    8.311754926956294e-10    8.431818352995786e-10    8.311855381950614e-10    7.703607518917701e-10    
  6.68574394834642e-10    5.470129423158694e-10    4.364009748813513e-10    3.268271827117304e-10    2.345563322943778e-10    
  1.589998807432713e-10    1.044700464807212e-10    6.464305783003303e-11    3.9756912933655024e-11    2.301984866069337e-11    
  1.3732045473780871e-11    7.750519815538927e-12    4.87419242234696e-12    2.9987113446374138e-12    2.3768307553575552e-12    
  1.9866990709050524e-12    1.6817651561901587e-12    1.7014974069661668e-12    2.3804968831027806e-12    3.2846349015020173e-12    
  5.493176938955165e-12    8.707963221972825e-12    1.5002381873160886e-11    2.426492553362221e-11    4.0139625155864124e-11    
  6.231229950989622e-11    9.573611956386049e-11    1.3774995805055082e-10    1.9373655016509696e-10    2.5769021023661106e-10    
  3.307807869018334e-10    3.932018635662209e-10    4.4807328985362776e-10    4.859621632390525e-10    5.051546331161719e-10    
  4.85972933578218e-10    4.480937050730241e-10    3.93229873882369e-10    3.308138921768484e-10    2.577248654299339e-10    
  1.9376997807411194e-10    1.3777935058519362e-10    9.576005546185163e-11    6.232981389456576e-11    4.015143698100861e-11    
  2.4272000846089553e-11    1.5006309893288878e-11    8.709878479245304e-12    5.494059045744845e-12    3.2849855160332866e-12    
  2.3806323942700984e-12    1.7015373183676349e-12    1.6817651561901587e-12    1.2873437527853903e-12    1.5181605461074772e-12    
  1.7302701551443828e-12    2.5748799074732497e-12    3.61625350831087e-12    5.9399211887472214e-12    9.125619297307945e-12    
  1.5088412421674518e-11    2.3326254790820125e-11    3.682965429594295e-11    5.4355520591209525e-11    7.94049504793819e-11    
  1.0883363603347317e-10    1.451340713317405e-10    1.7861286061963804e-10    2.1631955477726683e-10    2.482931946322489e-10    
  2.690558161688209e-10    2.7187830174359713e-10    2.690662535015592e-10    2.4831288641320853e-10    2.1634639306132075e-10    
  1.7864412386501464e-10    1.451674141427044e-10    1.0886562568292627e-10    7.943341716531336e-11    5.437845937929078e-11    
  3.684677173497002e-11    2.3337656492995326e-11    1.5095464230900738e-11    9.129456156482617e-12    5.941887706603146e-12    
  3.617122742001575e-12    2.5752511694591256e-12    1.7304018085867562e-12    1.5182023001933905e-12    1.2873437527853903e-12    
  1.2900036104123963e-12    1.2405386633942106e-12    1.5930858083250618e-12    1.886834499328683e-12    2.7904662018329415e-12    