188
Lattice="12.4 0.0 0.0 0.0 12.4 0.0 0.0 0.0 12.4" Properties=species:S:1:pos:R:3:forces:R:3 energy=-30220.460047815533 stress="0.0 0.0 0.0 0.0 0.0 0.0 0.0 0.0 0.0" pbc="T T T"
O        5.18576304       3.88835365       8.96927450      -0.00330521       0.00236008       0.01813879
H        5.79210228       4.54890674       9.38504088       0.00415851       0.00913416      -0.01878664
H        5.28588716       3.06614213       9.49806785      -0.00237341      -0.01686779       0.01805795
O        3.05338717       8.50445061       2.17715786      -0.00665286       0.00437716      -0.00989616
H        2.90089949       9.21374645       2.85005758       0.00001710       0.00414430      -0.00390468
H        3.63335069       8.91548195       1.48466768      -0.00105433       0.00960578       0.00239169
O        1.77955833      12.38701085       1.73384550      -0.00633894      -0.00278021       0.01083160
H        1.87062643       0.74284778       2.36647527       0.00874039       0.00131015      -0.00005991
H        2.64849087      12.34988388       1.26142972      -0.00743073       0.00844907       0.00609001
O        7.87182290       6.78905850       5.08150482      -0.01180012       0.00137450      -0.00031803
H        7.77047978       6.95360698       6.05349763       0.00376558       0.00421984       0.00097044
H        7.54706347       7.60719940       4.63571276       0.01071456       0.01088030      -0.00827638
O       11.20747980      10.72787599       4.80435051      -0.01095230       0.00274451       0.01171472
H       11.75441931      11.49258068       5.11185780       0.00204349      -0.00672629       0.00914833
H       10.26786456      11.03637925       4.79315954      -0.01182124       0.00110161       0.00465004
O       11.37952063      10.15887327       2.21012930      -0.00228636      -0.00508761      -0.00173373
H       11.15050236      11.06863727       1.89448689      -0.00270242      -0.00591879      -0.00507515
H       11.50179496      10.27875637       3.18392867       0.00010059      -0.00386446      -0.00125992
O        7.31334667      11.23705702       6.98922372      -0.00050088      -0.00861058       0.00032018
H        6.81969037      10.43519696       7.28943726      -0.00747962      -0.00837081      -0.00551212
H        6.60876370      11.92113993       6.86129202       0.00651932      -0.00196701       0.00626970
O        9.15841148       1.21329573       3.68378966      -0.01001082      -0.00427833       0.00558584
H        9.49233225       1.49468182       4.57056355      -0.00251399      -0.01289617       0.00242818
H        8.49635083       1.90077217       3.42157436      -0.00361506       0.00542416       0.01076246
O        8.20028544       4.65823836       0.92744543       0.00987879       0.00259767      -0.00099986
H        8.54972097       4.35724954      12.45241095      -0.00581580      -0.00554901      -0.00919079
H        8.95740984       5.12944854       1.35689499      -0.00143532       0.00677073       0.01497550
O       12.34095298       6.21297845       0.20411411       0.00353713       0.00638499      -0.00780374
H        0.24548374       7.11752402       0.46472869      -0.00250021       0.00897239       0.00929567
H       11.59903936       6.01874549       0.82901271       0.01408821       0.02283596      -0.01379663
O       10.18419098      10.39923365       9.89077809      -0.00468771       0.00981733      -0.01079329
H       11.08527518      10.44855458      10.29608408      -0.00735526      -0.01051101       0.00847140
H       10.25351807       9.63620141       9.26280633      -0.00234468       0.00645395      -0.00225947
O        7.07841518       5.63697542       9.72488927       0.01010809      -0.00376163      -0.00548085
H        6.87736096       6.38375411      10.34090809      -0.01298510      -0.01470632       0.00106883
H        7.74466810       5.06396136      10.17913052       0.00034933      -0.00741535       0.00667978
O        0.20824611       0.55045315       5.56225325       0.00012166       0.00326241      -0.00095387
H        0.82202798       0.98517573       4.91947233       0.00970347       0.00026019       0.00953755
H        0.68158845       0.58932161       6.43000820       0.00387492       0.00027880      -0.00022312
O        5.35996118       0.57295874       6.55584099      -0.01433574       0.00551770      -0.00472754
H        5.52623870       1.54832129       6.52956906       0.00128705       0.00096735       0.01091182
H        4.83408999       0.40758435       7.37883518      -0.00050533       0.00158616       0.00504310
O        1.37684292       0.82908444       7.96966164      -0.00648140       0.00640871       0.00939365
H        0.92499394       1.29740549       8.71827573       0.00945039       0.01189186       0.00531833
H        1.66133066      -0.03863503       8.33596142       0.01062958       0.00007173       0.00689411
O        0.48433251       2.30827327      10.05428313       0.00569634       0.00367831      -0.01575284
H        1.23305877       2.95447303      10.12792807       0.00747426       0.00429581       0.01374632
H       12.12217096       2.88022197       9.78663661      -0.01004999      -0.00532846       0.01026875
O        9.11458044       0.17412324       8.50027483      -0.00825595      -0.00853715       0.00887137
H        8.45555636      12.00067512       8.03331136      -0.00629169       0.00989907      -0.01973587
H        9.67628926      11.91510659       8.97977897       0.00714426       0.00336606       0.01262981
O        7.26299150       2.91789607       2.75347767      -0.00755989      -0.02964616      -0.01469044
H        6.82255637       3.56929192       3.35424469       0.02134395      -0.01836995      -0.03214028
H        7.62920379       3.46734580       2.01626383      -0.00627894       0.01681545       0.01078933
O       10.19877305       1.60717988       6.19916840       0.00531778      -0.00153249       0.00335266
H       11.09871482       1.22858081       6.03765432      -0.00076766      -0.01159946      -0.00553329
H        9.85891753       1.15588725       7.01098246      -0.00854145       0.00086545       0.00251422
O        2.52414524       4.10275023       9.79002148      -0.00084843      -0.02005276       0.00362580
H        3.29598779       4.03947064      10.40438499      -0.00419010       0.01660234       0.00293003
H        2.87920546       3.80053556       8.91645275       0.01992736       0.01597602      -0.00861269
O        2.24592772       4.26253282       3.41335518       0.01163317       0.00467346       0.00568273
H        1.72857647       4.57385551       4.19684155       0.00457982      -0.00218225       0.01312207
H        2.99149556       4.90141764       3.31313766       0.00720568      -0.00140263      -0.01522650
O        4.35093140       9.58646743       0.11491875      -0.00181162       0.00056965       0.00256484
H        4.33046549      10.57447535       0.11076436       0.00242760       0.00108180       0.00698895
H        3.97413662       9.32034117      11.64577013       0.00747578      -0.00242131      -0.00118161
O        7.76674314       1.35294607      10.66285977      -0.00537228      -0.00339645      -0.00319334
H        8.13787208       0.91964348       9.85360942       0.00984718      -0.00530745       0.00390782
H        7.98421848       0.74256915      11.41167644      -0.00125407      -0.00554737      -0.00503925
O       11.96640464       6.56455143       9.94439456       0.00318163       0.01737288       0.01023449
H        0.51106933       6.72669057       9.69800036       0.00663613      -0.01247162      -0.00539075
H       11.97860706       6.50257904      10.93256170      -0.01472563      -0.00507584       0.00916639
O        4.17852931      12.28918339       0.39476474       0.00082016       0.01967842       0.00360662
H        4.86053385       0.21196640       1.03575988       0.00188967      -0.00008903       0.01449122
H        4.34419325       0.44448408      11.99666172      -0.00608755       0.00508140      -0.00938542
O       10.43364494       0.18155870       1.49633678       0.00207078       0.00214020       0.00018361
H       10.24370546       0.76439363       2.27099468      -0.00408375       0.00687834      -0.00761877
H       11.06691763       0.64346254       0.89374448       0.00158071       0.00607595       0.00048501
O        5.88676831       8.95556339       7.64675165       0.00469217       0.00145570      -0.00011047
H        5.47548201       8.47652527       6.88269189      -0.00252390       0.00456222       0.00364238
H        5.23137988       8.89650954       8.38152714      -0.00230570       0.00157675      -0.00894048
O        0.73282433       8.81107141       0.65544130       0.00549770      -0.00914151      -0.00459757
H        0.15507959       9.30282995       1.29206687      -0.00488003      -0.01571386      -0.00537368
H        1.58894556       8.70518072       1.13788886       0.00327853       0.01184393       0.00173740
O        8.02433513      12.09529617       0.40850212      -0.00472302      -0.00346676      -0.00150743
H        8.93780006      -0.21425225       0.77964723      -0.00055636       0.00300959      -0.00280802
H        7.98059772      11.16910375       0.06146245      -0.00172654      -0.00285875       0.00322562
O       12.44054949       0.56673727      12.14691998       0.00900691      -0.01227928      -0.00210631
H        0.24095171       1.32336606      11.54059330      -0.01623715      -0.00509514      -0.00120869
H        0.75630679       0.55298225       0.43033819      -0.00038393       0.01148570       0.01160243
O        2.76366336       3.07439097       7.26615830      -0.00679993      -0.01472889      -0.01192897
H        3.65705355       3.05319985       6.84446139      -0.00289959       0.00511330      -0.00732085
H        2.49400248       2.13522970       7.40251071      -0.01847327      -0.00924325       0.00243539
O        7.31400829       9.04436868       3.50741971       0.02839346      -0.02168736      -0.00394187
H        7.64575154       9.90408203       3.88015395      -0.01632492      -0.02171196      -0.01540628
H        6.43789095       9.24473206       3.11839073       0.00979809       0.01912200       0.00168378
O       10.45772713       6.17817536       4.70993056      -0.00123033       0.00510249       0.01168273
H        9.52139606       6.48413169       4.81682718      -0.00623415      -0.01223386      -0.00706554
H       10.99422165       6.92733233       5.07036616       0.00833698       0.00808749       0.00597009
O        8.78728528       3.85943961      10.81494969      -0.00365633       0.01177371       0.00755607
H        8.47216291       2.92564105      10.72966952       0.01115832       0.01269659      -0.00588224
H        9.62381768       3.91245128      10.28852521      -0.00249790      -0.01436965       0.00684563
O        2.11237979      10.63793598       8.82187061       0.00300941      -0.01735467       0.00635008
H        1.38917751      10.48381341       9.48374025      -0.00367334       0.01207991      -0.00011076
H        1.84619244      10.20494158       7.97050529      -0.00034575      -0.00436657      -0.00327209
O        3.96625740       8.73966440       9.82137504      -0.00527007       0.00498215       0.00701074
H        3.38654185       7.93772652       9.73110390      -0.00220217       0.00476909      -0.01008393
H        3.39726298       9.47581971       9.48912167      -0.00499942       0.00218976      -0.00156025
O        6.34381133       7.77743361      11.20088517       0.00356607       0.00359970       0.00209548
H        5.57508407       8.27231723      10.83764606      -0.00403409      -0.00910821      -0.00598811
H        7.01525885       8.47776501      11.39828073       0.01067314      -0.00271298       0.00729763
O        4.08417677       3.87725191      12.01903918       0.00448128       0.01559339      -0.00556704
H        4.64004507       4.60754916      -0.01862460       0.01529505       0.00629255       0.00070325
H        3.23104845       3.90499418       0.12669715       0.00739433       0.00294025       0.00510052
O        1.61810326       9.50427995       6.33857226      -0.00030463       0.00161933       0.00897783
H        1.85520220       9.97793871       5.50319266      -0.01517574      -0.00673124       0.00099803
H        0.68966019       9.19108433       6.19676578       0.00247940       0.00688658      -0.00761587
O       11.00170339       4.14174851       9.27130814       0.00214233       0.00298998      -0.00211592
H       10.86624891       4.19158751       8.29309481       0.00408228      -0.00594678      -0.00170604
H       11.43295112       5.00492081       9.49398253       0.00484483       0.00411197      -0.00110678
O        2.21569034       6.73365692       9.31334086       0.01672599       0.01474513       0.01132387
H        2.31277025       6.72620760       8.32755378      -0.00840857       0.00646576       0.00408807
H        2.39422406       5.79425397       9.57740298      -0.00355447       0.01395970      -0.00175493
O        7.94787542       7.23643594       7.76064299      -0.01157170      -0.00791118       0.00053068
H        7.24695333       7.91663363       7.91928909       0.00686392       0.00992379      -0.01533355
H        7.67768723       6.48810975       8.35012228       0.01089627      -0.01895602       0.00582362
O        6.16942969       4.76775685       4.41641153       0.00287491      -0.00246935       0.01799920
H        6.81320853       5.46354172       4.70472183       0.00477049       0.00444198      -0.00301092
H        5.38762512       5.28984921       4.12194043      -0.00940032      -0.02121994      -0.00210207
O        1.17004743       4.70872459       5.83530265      -0.00782488      -0.01282506      -0.01364851
H        1.70171312       4.05208387       6.35333491      -0.00909199       0.00416668       0.01116110
H       12.62985034       4.49806644       6.05534038       0.00725318       0.00120472       0.01932222
O        1.66194999       4.03887878       0.74320563      -0.00190250      -0.00275878      -0.00408981
H        1.12782961       4.81190909       0.44120827      -0.00481670      -0.00156256      -0.00096687
H        1.65373404       4.10915951       1.72688209       0.00993043       0.01236156      -0.00581374
O        5.35266432       3.20823982       6.48031574      -0.01245663      -0.01636904      -0.01194928
H        5.54168759       3.65823583       7.34175090      -0.00746887      -0.01299069      -0.03732987
H        5.67918019       3.79448834       5.75716156       0.00332575       0.02829173       0.02661784
O        8.31173090       9.59926934      11.76765229       0.00493601       0.00715256      -0.00453588
H        8.97856724       9.81979557      11.06931890       0.01546516      -0.01053294       0.00537462
H        8.81504013       9.14386789       0.08793032      -0.00119782      -0.00504196      -0.00502619
O       10.40527957       8.15504992       8.40143139       0.00799256       0.00409078      -0.00053426
H       10.88010683       7.53864395       9.01434875      -0.02134125      -0.00393034      -0.00435361
H        9.51333860       7.75835826       8.23395478       0.01080830      -0.02158142       0.02033437
O        2.42177346      10.57421001       3.82316464       0.00036255      -0.00553436       0.00358758
H        1.90431277      11.09601707       3.16048972       0.00595910       0.00389400       0.00501743
H        3.20949895      11.15244274       3.98816380      -0.00802714       0.00501029      -0.00962088
O        5.73453147       5.85353413       0.71194334      -0.00357741       0.00055604      -0.00765144
H        5.86628520       6.64860684       0.13887956       0.01875539       0.00058302      -0.00596554
H        6.64315456       5.47572291       0.82365970      -0.00162887       0.01470585      -0.00904040
O        9.30899838       8.55446058       1.65381547       0.00232611       0.01648184       0.00037757
H        8.56430186       8.70674894       2.28452584      -0.00218429      -0.00653511       0.00169151
H       10.02687836       9.17373114       1.94282509       0.00695785       0.01414578       0.00040199
O        6.12131267       0.54415881       2.13374464       0.00462339       0.00226519       0.00496447
H        6.41211393       1.48014017       2.27176108      -0.00203291       0.00122043       0.01440217
H        6.86658204       0.12160476       1.63758973       0.00852720       0.00890823      -0.00039082
O        4.25693752       6.23249164       2.99567749       0.00654948       0.00553226      -0.00141978
H        4.81052656       6.10296336       2.18315102      -0.00176015      -0.01471848       0.00304381
H        3.70624395       7.02536720       2.77064858      -0.01198825      -0.00014372      -0.00784067
O        4.38381272      12.27505854       8.90901156      -0.00327575       0.00447054       0.00606092
H        4.39106890       0.56626599       9.61035834       0.00737266       0.00263904       0.00352528
H        3.54472890      11.77666668       9.01929402      -0.00588441      -0.00328196      -0.00828959
O        2.16092650       1.57754520       3.87112287      -0.00718172      -0.00465617      -0.00221993
H        3.04393416       1.18144217       4.07329982      -0.00419181       0.00531697      -0.00629290
H        2.32158690       2.54538731       3.74553237       0.00473264      -0.00445570       0.00539736
O        0.35922121      10.53966220      10.89505895      -0.00758800      -0.00348697      -0.00392326
H        0.31873401      11.41590742      11.35769251       0.00155415       0.00085634      -0.00423239
H        0.58014648       9.88409605      11.60376089      -0.00101132       0.00829808      -0.00144947
O       10.95516251       4.20473125       6.52351849       0.02386097      -0.00165826      -0.01425917
H       10.56845984       4.85846803       5.89050642      -0.00920693      -0.00122863       0.00467065
H       10.58167959       3.32231721       6.28301356      -0.01462028       0.01114440       0.01363898
O        8.52946529      11.15339826       4.59633614       0.00230317       0.00790340       0.00248286
H        8.11543788      11.23236837       5.49342388       0.00125359      -0.00631175       0.00298598
H        8.48486144      12.05559164       4.19146479      -0.00207939       0.00045413      -0.01914073
O       11.58597493       8.36543553       5.98558277      -0.01001650       0.00371973       0.00042365
H       11.16479750       8.28826652       6.87935013       0.00055209      -0.01525954       0.00512818
H       11.21361753       9.19622810       5.59951945       0.00169036       0.00241364      -0.01423995
O        4.36968252       0.00268112       4.15583095       0.00354251       0.00154241       0.00180410
H        5.10256537       0.10221364       3.50194449      -0.00582351      -0.00438989      -0.01254686
H        4.77965700       0.12972648       5.04739046      -0.01313059      -0.02441126       0.01576866
O        5.06057171       1.69197448      10.86603088       0.00060719       0.00431027      -0.00579196
H        4.81540211       2.46537762      11.43790424      -0.00036435      -0.00767520      -0.00389350
H        6.04359448       1.58187034      10.90763034       0.00604807      -0.00413607      -0.00641103
O       10.26701963       6.05734581       1.97482355       0.02448788       0.00736968      -0.00252499
H        9.93790680       6.98708353       1.88624737      -0.02890699      -0.00901167      -0.00871003
H       10.49751741       5.97315680       2.93303244      -0.01160664      -0.02033968       0.00410853
Na       2.61822679       6.92845310       6.58189107       0.00000000       0.00000000       0.00000000
Cl       4.81354853       7.24553461       5.77589990       0.00000000       0.00000000       0.00000000
