645
Lattice="22.5 0.0 0.0 0.0 22.5 0.0 0.0 0.0 22.5" Properties=species:S:1:pos:R:3:forces:R:3 energy=-101505.46870961452 stress="0.0 0.0 0.0 0.0 0.0 0.0 0.0 0.0 0.0" pbc="T T T"
C       11.05873360      12.51012224      11.49101497       0.00031056       0.00059218      -0.00118690
H       10.88099436      13.34377431      12.20573481      -0.00293883      -0.00151793      -0.00060366
O       10.81636563      11.25049981      12.13446520      -0.00002910       0.00208934      -0.00070472
C       11.64746436      11.02648448      13.29524785       0.00127915       0.00090707      -0.00070007
H       11.49344134      11.86198371      14.01379384       0.00406402       0.00216025      -0.00377957
O       11.26256087       9.81043057      13.85207271      -0.00210190      -0.00035500      -0.00121147
H       10.57368185       9.97767857      14.53611580       0.00124273      -0.00174792      -0.00156035
C       13.11542971      10.97640766      12.85940960      -0.00056863      -0.00008264       0.00005216
H       13.23848403      10.10577192      12.17967941      -0.00000955      -0.00187484       0.00375742
O       13.91170108      10.81154799      14.02922797      -0.00031098       0.00224005      -0.00012389
H       14.86904709      10.92628286      13.80113006       0.00097982      -0.00153636      -0.00527503
C       13.49001251      12.27185859      12.12131496       0.00009910      -0.00229642       0.00124858
H       13.45616391      13.10027225      12.85645193      -0.00127396       0.00018291      -0.00256436
O       14.85073450      12.23106848      11.67695231       0.00047273      -0.00434685       0.00638561
H       14.93009876      11.58104637      10.93541727      -0.00322558      -0.00330034      -0.00210399
C       12.51082277      12.60415485      10.99545562      -0.00013462      -0.00075456       0.00170211
H       12.63834216      11.86978397      10.16965222      -0.00268342      -0.00313805       0.00174808
O       12.79458623      13.93711414      10.52832946       0.00296751       0.00276116       0.00345528
H       11.96333050      14.26958867      10.08016278       0.00202890      -0.00384836       0.00387567
C       10.04612081      12.57635764      10.34220509       0.00085488      -0.00127398      -0.00020568
H        9.02639419      12.65021203      10.76473819       0.00501579       0.00062347       0.00604944
O       10.30307403      13.70516760       9.50429825       0.00044150      -0.00275545      -0.00210397
H       10.44642184      13.38074274       8.57934163      -0.00050669       0.00761819       0.00034262
H       10.12130665      11.63614013       9.76588197      -0.00424424      -0.00259327       0.00479652
O        3.62787154       5.55113408       3.17330192       0.00035209      -0.00164394      -0.00220399
H        3.50507503       4.94442463       3.94873959      -0.00217340      -0.00033222       0.00219141
H        4.54536693       5.37534712       2.85087140       0.00422543       0.00292496       0.00272897
O        3.38485925       3.87804588       5.35924917      -0.00281259      -0.00506909       0.00162708
H        4.31584027       3.77608739       5.67524573       0.00179697       0.00488332      -0.00089435
H        2.90549909       4.34438042       6.08763888      -0.00227087      -0.00790978      -0.00424068
O        4.47685542       3.60643611       8.21795260      -0.00023690      -0.00012338       0.00051625
H        4.01395298       4.37274778       8.63843062       0.00415964       0.00361655       0.00138566
H        4.02240255       2.82157313       8.60654497       0.00482983       0.00098593       0.00202610
O        2.39412544       4.71650431      11.96816827      -0.00275278      -0.00287092       0.00220652
H        2.45959194       5.57613563      12.45692023       0.00293938      -0.00066010      -0.00255061
H        3.11480239       4.15977792      12.35890839       0.00278955      -0.00194443      -0.00105997
O        3.65253426       2.11903955      15.35071407       0.00103225      -0.00075101       0.00048852
H        2.68328415       2.05822134      15.17364893      -0.00286776       0.00145848      -0.00090064
H        3.71945859       2.24173904      16.33006388      -0.00183651      -0.00218778      -0.00152001
O        3.56636836       2.26714041      18.12173877       0.00136619      -0.00062808      -0.00131948
H        2.76490700       2.83029650      18.24458782      -0.00241952      -0.00195201      -0.00100268
H        3.24210605       1.37608879      18.41049427      -0.00012169       0.00175093      -0.00000830
O        3.40168595       8.14496422       3.88994278      -0.00500961      -0.00278749       0.00114271
H        3.50936739       7.24134272       3.50035634      -0.00327292      -0.00043802       0.00081523
H        4.32839796       8.45453048       4.03789050       0.00006865      -0.00399654      -0.00258896
O        1.17793754       6.69618244       8.27962690      -0.01437123       0.00722154       0.00407556
H        1.46202127       7.07780333       7.41324194       0.00681880      -0.00383579      -0.00192783
H        0.81419665       5.82030388       7.98995403       0.00183313      -0.00383400       0.00134441
O        3.32049610       5.67039328       9.59174833      -0.00109001      -0.00098350      -0.00048605
H        2.92254644       5.26500891      10.40064440      -0.00003206       0.00223907       0.00067252
H        2.56944173       6.12797322       9.13693004       0.00555707       0.00097294       0.00562933
O        2.90553584       7.04658211      13.29410126       0.00023470      -0.00408789      -0.00533428
H        2.87502288       7.94239935      12.87533937       0.00185594      -0.00244675       0.00110481
H        2.41330925       7.15884876      14.14400554      -0.00062620       0.00441376      -0.00067391
O        3.26510894       5.76754912      17.61595238      -0.00514434      -0.00992871       0.00749941
H        3.46655235       6.61555558      18.09037423      -0.00596511      -0.00027655      -0.00274045
H        2.70338282       5.28787343      18.27331960       0.00698183       0.00871866      -0.00682452
O        1.82461209       5.10329986      19.83928657       0.00435215       0.00339997      -0.00261643
H        2.47125897       5.29192949      20.56482541      -0.00249203      -0.00077081      -0.00154429
H        1.14359443       5.81767872      19.90771688       0.00054302       0.00174808      -0.00052280
O        1.74305875      10.13335359       3.05806562       0.00615655       0.00177253      -0.00796805
H        1.24533297      10.23097958       3.90039988      -0.00318631      -0.00010505       0.00346952
H        2.30592713       9.33223027       3.21038149      -0.00135768      -0.00254369      -0.00345555
O        3.39685958      11.00066444       7.57689515       0.00008010      -0.00302996       0.00127616
H        3.57924277      11.97500032       7.54364883       0.00033524      -0.00323365      -0.00391222
H        4.27601445      10.59356600       7.39535881       0.00272040       0.00075351      -0.00127613
O        2.64355409      11.05260735      10.16919466       0.00101870       0.00573206      -0.00296924
H        1.67379360      10.99775104       9.98883684      -0.00515069      -0.00211589       0.00328239
H        3.03998826      10.88109277       9.27969554       0.00259716      -0.00342673       0.00044397
O        2.64506352       9.63943543      12.44299619       0.00095107       0.00243473       0.00159794
H        2.78194357       9.90369259      11.50005803      -0.00018192      -0.00003058      -0.00219629
H        3.03723325      10.40500584      12.92741306      -0.00068440       0.00018235      -0.00000048
O        3.20135284       9.64680549      16.58664308      -0.00258729       0.00045975       0.00198032
H        2.98950317       8.84439486      16.05207278       0.00304012       0.00008826       0.00366221
H        3.97568780      10.08271400      16.15388706      -0.00428296      -0.00439675       0.00638306
O        3.38887543       8.17802483      18.77718563       0.00117934      -0.00369883       0.00098842
H        4.11867126       8.23139142      19.43996221       0.00466329      -0.00436160       0.00215152
H        3.62105192       8.84649985      18.08615579      -0.00349611      -0.00067133      -0.00091915
O        1.95103129      14.21451687       4.07728405      -0.00190420       0.00184957       0.00027407
H        2.62062295      13.57898285       3.72171164      -0.00003833       0.00310958      -0.00051580
H        1.83445720      14.00578534       5.03669747      -0.00285887      -0.00285372      -0.00033971
O        3.61095324      13.65454335       7.86512165      -0.00109811      -0.00147175       0.00244893
H        3.71527890      13.73678276       8.84439448       0.00051937      -0.00011864      -0.00188673
H        4.39910305      14.11771223       7.48731154       0.00031387      -0.00120881      -0.00054172
O        3.58507279      13.57000056      10.54347255       0.00083185      -0.00047129      -0.00438761
H        4.21134454      13.79103146      11.27629878      -0.00113422      -0.00617070       0.00056919
H        3.18834497      12.68359894      10.72906240      -0.00152588       0.00066389       0.00058522
O        3.50174364      12.12947951      13.32855438       0.00092680      -0.00018936      -0.00423080
H        4.26596138      12.67301222      13.02674366       0.00381678       0.00114217      -0.00008729
H        2.72949557      12.75095764      13.34706316       0.00266808       0.00222263       0.00320066
O        0.93037581      10.92634983      17.32654317      -0.00105846       0.00015898      -0.00414107
H        0.53763068      10.06600370      17.61433970       0.00023626      -0.00305643      -0.00180005
H        1.80289676      10.63687448      16.95720494       0.00304309       0.00261254      -0.00187458
O        3.34424928      12.37292620      21.20762758       0.00014770      -0.00542714      -0.00250887
H        2.94518902      11.50857790      21.47702165      -0.00481536       0.00306050      -0.00181633
H        2.79673794      12.58831023      20.41034726      -0.00320658      -0.00225884      -0.00206625
O        4.94816762      16.59469745       2.76115595       0.00222315      -0.00543074       0.00209157
H        4.23197856      16.89904637       3.37036547      -0.00202767       0.00090770      -0.00131780
H        5.64764452      16.21171254       3.34100645      -0.00388332       0.00224746      -0.00411747
O        4.58015531      17.17332391       6.28163300       0.00149969       0.00175418       0.00115266
H        5.21157502      17.85031753       5.93314562       0.00251643      -0.00142076      -0.00773001
H        3.83562009      17.10646434       5.63440969       0.00126510      -0.00048327       0.00081874
O        2.69395588      16.12516148      10.57165433      -0.00015242      -0.00093832      -0.00347236
H        1.74524637      16.31570611      10.36852715      -0.00197935      -0.00084728       0.00608970
H        2.76806401      15.14224026      10.60840259       0.00331577       0.00116370      -0.00320402
O        3.69411618      15.40277526      14.53415298       0.00164491      -0.00117130      -0.00234253
H        2.78496592      15.01120705      14.51921922      -0.00090294      -0.00206990       0.00244396
H        3.59444864      16.31444438      14.16064676       0.00071698      -0.00015164      -0.00097158
O        4.08298015      14.93251902      17.20341177      -0.00078035      -0.00072796      -0.00286652
H        4.84498761      14.32111977      17.34675326       0.00278480       0.00071339       0.00258276
H        4.16711262      15.24742602      16.26989589       0.00024503       0.00128022       0.00155348
O        3.06744532      16.17909378      19.37646200      -0.00406280      -0.00459749      -0.00415430
H        3.70788921      16.01956729      20.10846477       0.00307332       0.00351237      -0.00003739
H        3.52375001      15.83390727      18.56742472      -0.00034307       0.00558103       0.00369696
O        2.17203443      18.65476030       0.18667735      -0.00046902      -0.00177688      -0.00051038
H        2.53636963      17.85305634       0.63828058      -0.00076971       0.00331380      -0.00036382
H        1.34808508      18.89943058       0.67743728      -0.00250086       0.00409865      -0.00049618
O        1.86042263      20.56595355       6.64233497      -0.00205449      -0.00189695      -0.00643135
H        2.55597604      20.95629884       6.06166206      -0.00459979       0.00727295       0.00336891
H        2.31050925      20.25206506       7.46394262       0.00180832       0.00181230       0.00414068
O        4.06957447      17.61889666       8.87854410       0.00594169      -0.00068293      -0.00112260
H        3.56113715      16.89010245       9.31028478       0.00154732       0.00454860       0.00142222
H        4.14501963      17.40109460       7.91730649      -0.00331662      -0.00195534       0.00033102
O        3.25500519      17.52962856      12.86573241      -0.00089170      -0.00042537      -0.00153751
H        3.97250267      18.20373497      12.77603949      -0.00089588      -0.00197222      -0.00020289
H        3.21410431      17.05221660      12.00105374       0.00018972      -0.00257726      -0.00365817
O        4.60932113      18.11633266      15.48952780      -0.00024829       0.00044957      -0.00230610
H        4.40120605      19.05410625      15.26663389       0.00038553       0.00125096       0.00182151
H        3.75745814      17.78346198      15.86076905      -0.00326072      -0.00028136       0.00022660
O        2.00138916      17.46102854      16.38236133       0.00537670       0.00267350      -0.00068706
H        1.99060808      17.87140878      17.28281241      -0.00091670       0.00008919       0.00403150
H        1.87742283      16.48839296      16.52265494       0.00029091       0.00298696      -0.00440192
O        6.10308420       4.73724754       2.42493581      -0.00230109       0.00309792      -0.00148590
H        6.08665941       4.16992981       1.61471016       0.00041836       0.00199483      -0.00195528
H        7.02982401       5.06540879       2.49405995       0.00060354       0.00053820      -0.00184056
O        6.08274367       3.83503085       4.98885297      -0.00678675      -0.00587722       0.00073085
H        5.91710285       4.03170366       4.03418327      -0.00307285      -0.00583103       0.00130739
H        6.34445003       4.71780783       5.34925862      -0.00086548      -0.00289706       0.00376378
O        7.11868239       4.00572887       8.73210506      -0.00360950       0.00042979      -0.00085014
H        6.16947521       3.81797203       8.51365901      -0.00042309      -0.00077020      -0.00129956
H        7.32750005       3.44385966       9.51784870       0.00219312       0.00380620      -0.00450948
O        4.52086093       3.42341144      13.11082519      -0.00000849       0.00360960      -0.00048312
H        4.31812381       3.09299692      14.02140250      -0.00000827       0.00158285      -0.00116887
H        5.07221961       4.23236770      13.25241089       0.00096040       0.00079979      -0.00387891
O        7.52296789       3.66457219      16.74377651      -0.00024519       0.00292622      -0.00235494
H        8.31149430       4.25929581      16.75212528       0.00233278      -0.00217256      -0.00091766
H        7.82911485       2.84050028      16.28860769       0.00327749       0.00123900       0.00186168
O        6.15524814       3.02862729      18.99144237      -0.00024047      -0.00048828      -0.00001949
H        6.61367812       3.29313735      18.15621385       0.00306066      -0.00042371       0.00121499
H        5.25947562       2.70682486      18.72483856       0.00135803       0.00060963      -0.00244780
O        6.06649200       8.45307597       3.94153187      -0.00479887       0.00114667       0.00208033
H        6.39456426       7.67220416       4.45085476      -0.00097763       0.00120688      -0.00473559
H        6.64001807       9.21522354       4.19828307      -0.00134821       0.00099947       0.00543590
O        6.77852329       6.41648498       5.53522528       0.00665294       0.00254780       0.01024483
H        7.76590784       6.34735331       5.53952736      -0.00169928      -0.00043667      -0.00291744
H        6.54656756       6.89995206       6.36514628       0.00230106      -0.00113573      -0.00045267
O        8.04771833       6.51833683       9.35148134      -0.00194228      -0.00150935      -0.00104706
H        7.33625100       6.76639686       9.99213481       0.00450717      -0.00450612       0.00038512
H        7.68542590       5.67692416       8.96547738       0.00230662       0.00334753       0.00337296
O        5.44618997       6.01409118      13.68631104      -0.00271097      -0.00354699      -0.00139599
H        5.57141616       5.98251400      14.66819911       0.00194971       0.00075440      -0.00370066
H        4.55832758       6.43949478      13.57509289       0.00531183       0.00056890      -0.00174340
O        5.67484179       5.50101160      16.38612312       0.00303177       0.00259581      -0.00153953
H        6.13670571       4.62800817      16.36662974      -0.00200677      -0.00022716      -0.00425903
H        4.79951422       5.34937401      16.82097463      -0.00337650       0.00359273       0.00009435
O        7.33031834       6.95207017      18.06017758      -0.00213169       0.00599512      -0.00284120
H        6.77204827       7.32162320      18.79111747      -0.00499971       0.00279673      -0.00456975
H        6.73202702       6.33644375      17.56829217      -0.00337198       0.00199893       0.00156472
O        7.53301416      10.71701465       4.22613252       0.00274103       0.00111433      -0.00137498
H        7.13936339      11.20609324       3.45986636       0.00243861       0.00620646      -0.00108304
H        7.30534552      11.31878413       4.97481601      -0.00049054       0.00292167       0.00107236
O        6.50267803       8.08226018       7.65413106       0.00123682       0.00097516      -0.00048904
H        7.33335238       7.87418069       8.13967281       0.00663974      -0.00705757       0.00105868
H        6.53701211       9.04193938       7.41904407      -0.00034297      -0.00089787      -0.00252439
O        5.45459785       7.28019386       9.99442613       0.00364904      -0.00301566       0.00116881
H        4.68146874       6.66437885       9.95006204       0.00112352       0.00075311      -0.00259328
H        5.49541579       7.69859575       9.10364526      -0.00050332       0.00521439       0.00052775
O        6.67618451       8.00452319      12.21781119       0.00144827      -0.00132850      -0.00039636
H        6.03275618       7.90966582      11.47228049       0.00272599       0.00007960       0.00174629
H        6.49922415       7.20895473      12.77939910      -0.00245471       0.00034035       0.00146497
O        6.49978033       8.98962228      16.39785103      -0.00129064       0.00347415       0.00195861
H        7.02635992       8.24508207      16.77032092      -0.00220763      -0.00406462       0.00235431
H        6.94425798       9.27628009      15.56816022      -0.00022709      -0.00147943       0.00365435
O        5.82331763       8.29976468      19.90718078       0.00234368      -0.00358422      -0.00023336
H        6.00795005       9.23386851      19.63722218      -0.00062018       0.00136998      -0.00167378
H        6.00715117       8.26683848      20.87693520      -0.00240154      -0.00190620       0.00065591
O        6.09791625      12.56426116       2.87427759      -0.00128599      -0.00313897      -0.00111869
H        6.62978605      13.11251175       2.24776879       0.00209883       0.00149168       0.00423570
H        5.17231042      12.51283086       2.53125677       0.00198767       0.00298078      -0.00142834
O        6.07854999      10.72853127       7.41775843      -0.00111827       0.00433349       0.00336298
H        6.35398149      11.14595885       8.26961315      -0.00050643      -0.00053055      -0.00216009
H        6.14494547      11.44451835       6.73893302       0.00451081       0.00005391      -0.00107480
O        6.75609790      11.78528024       9.91636640      -0.00516493      -0.00083312       0.00092954
H        7.30808718      11.20320074      10.49915617      -0.00091890      -0.00093493       0.00191024
H        5.92748738      11.93012696      10.42215602      -0.00177177       0.00038523      -0.00159842
O        5.18066658      14.20335131      12.61361515      -0.00141081      -0.00066224      -0.00154914
H        4.72294656      14.71662024      13.32801468       0.00010415       0.00168012      -0.00028900
H        5.97334378      14.74110800      12.37071922       0.00523594       0.00147532      -0.00363920
O        4.91179939      11.34539432      15.45168039      -0.00043002       0.00255168       0.00027291
H        5.57465003      10.93779343      14.84152986       0.00535043       0.00290295      -0.00264613
H        4.24812885      11.75764147      14.84758608       0.00345834       0.00064345      -0.00041248
O        6.26406932      10.51685763      18.53690463       0.00057095      -0.00065271      -0.00166070
H        5.76328583      11.35899884      18.42685329      -0.00109765      -0.00073190      -0.00105356
H        6.21048295      10.06896421      17.65233062      -0.00069111       0.00521821       0.00045705
O        7.53213264      16.25287842       4.06277606      -0.00029884       0.00238853       0.00478895
H        8.25537445      15.81436825       4.57474692      -0.00325027       0.00107099      -0.00044884
H        7.96105127      16.40869851       3.18591240       0.00167325       0.00068717      -0.00169403
O        5.86242475      14.89778188       7.06166050      -0.00223412      -0.00167033       0.00263645
H        5.58068858      15.78568373       6.73349918       0.00034390       0.00340436       0.00134085
H        6.41116185      15.03332227       7.87263387       0.00138485      -0.00128990      -0.00285272
O        7.39481851      14.50429521       9.25252801       0.00184161       0.00282580      -0.00034983
H        7.38749100      14.96261242      10.12926363       0.00135552       0.00238307       0.00223181
H        7.29775302      13.54758861       9.46501012      -0.00179085       0.00025332       0.00079071
O        7.18453168      15.85103527      11.64255416       0.00280666      -0.00116372      -0.00176528
H        7.97271983      16.16019758      12.15307275       0.00021618       0.00145327      -0.00073554
H        6.80847343      16.68364233      11.25712192      -0.00365162      -0.00071305       0.00150385
O        5.88158871      12.92870955      17.38975849      -0.00035789      -0.00544561       0.00380213
H        6.86762593      12.92964915      17.36412164      -0.00232135       0.00238676      -0.00253559
H        5.60994361      12.43718060      16.57392873      -0.00106640       0.00013237       0.00302172
O        6.50944736      17.92870981      19.60771458       0.00005864       0.00077240       0.00210879
H        5.74907166      17.62513110      20.15980839      -0.00115417      -0.00337493       0.00005008
H        7.17139795      17.19853798      19.69773365      -0.00095536      -0.00160734      -0.00348340
O        7.94092503      20.56459613       4.43640088       0.00278559       0.00416369      -0.00060575
H        7.33759024      21.31140177       4.67786724      -0.00373727      -0.00171284       0.00158104
H        7.85612372      20.43964991       3.45858363       0.00524458       0.00373893      -0.00253659
O        6.86547326      18.34713327       5.62384187      -0.00039145      -0.00546253       0.00023303
H        7.17273911      19.19090371       5.21157836       0.00204311      -0.00000415       0.00174289
H        7.17676804      17.64177851       5.00108889       0.00004040       0.00350283      -0.00251622
O        6.34573236      18.03628562      10.22012842      -0.00144262      -0.00455122       0.00218347
H        7.04898814      18.14363975       9.53250664       0.00027404       0.00234373       0.00228914
H        5.54643379      17.80210255       9.68503563      -0.00193304       0.00203898      -0.00137991
O        5.27902990      19.47192774      12.28880057       0.00452475      -0.00012623       0.00009984
H        5.00488711      20.42094868      12.28006808       0.00148984       0.00084773      -0.00218029
H        5.59429561      19.25284230      11.37738738      -0.00210259       0.00048005      -0.00609763
O        6.93338111      18.10798699      16.90416263      -0.00100688      -0.00031690      -0.00094030
H        6.12070645      17.96332016      16.35551541      -0.00106691      -0.00076172      -0.00097980
H        6.59107479      18.19221679      17.82697540      -0.00176954       0.00109212      -0.00111833
O        7.93720064      20.05631048      20.38387087      -0.00354345       0.00185463       0.00352486
H        7.40313768      19.22683239      20.27973062       0.00211140      -0.00135620      -0.00113219
H        7.40411159      20.68758978      19.84065596       0.00382192      -0.00167218      -0.00545973
O        9.34920379       5.79215201       5.27930094      -0.00625341      -0.00845340       0.00602098
H       10.04465034       6.47931153       5.42440770       0.00654111      -0.00027349      -0.00273530
H        9.46272138       5.14012755       6.01712435      -0.00005335       0.00774155      -0.01148609
O        9.39535975       4.04397943       7.35993997       0.00356242       0.00340036       0.00347581
H        8.46510751       3.80803016       7.60007480      -0.00219895       0.00140315      -0.00097039
H        9.77342366       3.24731182       6.90359259      -0.00258036      -0.00176953       0.00561645
O        8.41943874       2.60462393      10.77635876       0.00200438       0.00060990       0.00365210
H        8.87409943       1.93669171      10.20029197      -0.00014191      -0.00031909      -0.00037625
H        9.06033989       3.35619412      10.75553075       0.00230572       0.00024514       0.00272768
O       10.91607776       4.53371383      14.24298160       0.00148959      -0.00144821      -0.00115321
H       11.65297365       3.89158888      14.06734107       0.00286579       0.00157605       0.00192605
H       10.13866149       4.10329759      13.82962698       0.00034017      -0.00223448       0.00243178
O        9.77611552       5.24890150      16.56699975      -0.00185567       0.00079413       0.00151259
H       10.23910217       5.29807809      17.43370224       0.00251265       0.00050746       0.00060945
H       10.41149472       4.83424202      15.93149374      -0.00018172      -0.00486492       0.00265864
O        8.86470369       4.96166264      21.39400361       0.00280985       0.00590274       0.00252354
H        9.11192164       5.24326615      22.31332265       0.00063785       0.00285524       0.00405814
H        9.07411602       4.00341879      21.37461543      -0.00326520      -0.00684256       0.00106735
O       11.19061897       7.60401000       5.98983339       0.00186586      -0.00156493      -0.00488691
H       11.46323895       8.41373833       5.49144330      -0.00287994       0.00389937      -0.00577804
H       10.91476162       7.89282709       6.89377037      -0.00020538      -0.00413411      -0.00095685
O       10.06960547       4.60837914       9.92441322       0.00131318       0.00014008      -0.00004412
H        9.55785036       5.44706871       9.99619437       0.00278953      -0.00379028      -0.00258581
H        9.97328417       4.36047932       8.96805798       0.00224543       0.00236284      -0.00435807
O       10.41050972       8.01822622       8.59486159      -0.00312925       0.00143558      -0.00225860
H       11.05725181       7.73399756       9.28902349       0.00397013       0.00154895       0.00072073
H        9.57185820       7.56011778       8.83213928      -0.00162952       0.00282392      -0.00351814
O       11.76949024       7.01759700      13.18439963      -0.00030094      -0.00559790      -0.00349894
H       11.43432489       6.16116586      13.54387477       0.00112631       0.00041558       0.00561639
H       11.35601998       7.70894503      13.75430281      -0.00017371       0.00548801      -0.00247891
O       10.40311224       7.78428324      15.59944368      -0.00175417      -0.00310247       0.00516488
H        9.90153128       6.97835205      15.86815368       0.00438402       0.00158235       0.00104287
H       11.28540207       7.65911115      16.03243172      -0.00272570       0.00499540       0.00413411
O        9.74390385       6.34512343      19.15824286       0.00486916       0.00041075      -0.00315479
H        8.89084770       6.50027733      18.67349037      -0.00085753      -0.00250272      -0.00041307
H        9.46053183       5.92798397      20.00847684      -0.00336372      -0.00185965       0.00043507
O       10.05471862      11.44704472       4.84733742      -0.00526067       0.00080315       0.00205712
H        9.25599759      10.96079386       4.53249268       0.00085605      -0.00069717      -0.00536347
H       10.80644937      10.80610376       4.81217856       0.00042202       0.00225254       0.00183125
O       11.87401457      10.34787099       8.14318180      -0.00106774       0.00063348      -0.00166772
H       11.13924929       9.73545374       8.37693697      -0.00116438      -0.00552200       0.00617013
H       12.57274726       9.75820833       7.76789017       0.00198351       0.00306418       0.00272071
O        8.23790888      10.22370425      11.68967506       0.00058758       0.00369151       0.00378666
H        9.21076180      10.32452785      11.82006112       0.00165314      -0.00552410      -0.00193154